Program Version,EnergyPlus, Version 9.0.1-bb7ca4f0da, YMD=2021.10.30 02:18
1,5,Environment Title[],Latitude[deg],Longitude[deg],Time Zone[],Elevation[m]
2,8,Day of Simulation[],Month[],Day of Month[],DST Indicator[1=yes 0=no],Hour[],StartMinute[],EndMinute[],DayType
3,5,Cumulative Day of Simulation[],Month[],Day of Month[],DST Indicator[1=yes 0=no],DayType  ! When Daily Report Variables Requested
4,2,Cumulative Days of Simulation[],Month[]  ! When Monthly Report Variables Requested
5,1,Cumulative Days of Simulation[] ! When Run Period Report Variables Requested
6,1,Calendar Year of Simulation[] ! When Annual Report Variables Requested
9,1,CORE_BOTTOM,Zone People Occupant Count [] !Hourly
11,1,CORE_MID,Zone People Occupant Count [] !Hourly
13,1,CORE_TOP,Zone People Occupant Count [] !Hourly
15,1,PERIMETER_TOP_ZN_3,Zone People Occupant Count [] !Hourly
17,1,PERIMETER_TOP_ZN_2,Zone People Occupant Count [] !Hourly
19,1,PERIMETER_TOP_ZN_1,Zone People Occupant Count [] !Hourly
21,1,PERIMETER_TOP_ZN_4,Zone People Occupant Count [] !Hourly
23,1,PERIMETER_BOT_ZN_3,Zone People Occupant Count [] !Hourly
25,1,PERIMETER_BOT_ZN_2,Zone People Occupant Count [] !Hourly
27,1,PERIMETER_BOT_ZN_1,Zone People Occupant Count [] !Hourly
29,1,PERIMETER_BOT_ZN_4,Zone People Occupant Count [] !Hourly
31,1,PERIMETER_MID_ZN_3,Zone People Occupant Count [] !Hourly
33,1,PERIMETER_MID_ZN_2,Zone People Occupant Count [] !Hourly
35,1,PERIMETER_MID_ZN_1,Zone People Occupant Count [] !Hourly
37,1,PERIMETER_MID_ZN_4,Zone People Occupant Count [] !Hourly
1920,1,CORE_BOTTOM,Zone Thermal Comfort Fanger Model PPD [%] !Hourly
1921,1,CORE_MID,Zone Thermal Comfort Fanger Model PPD [%] !Hourly
1922,1,CORE_TOP,Zone Thermal Comfort Fanger Model PPD [%] !Hourly
1923,1,PERIMETER_TOP_ZN_3,Zone Thermal Comfort Fanger Model PPD [%] !Hourly
1924,1,PERIMETER_TOP_ZN_2,Zone Thermal Comfort Fanger Model PPD [%] !Hourly
1925,1,PERIMETER_TOP_ZN_1,Zone Thermal Comfort Fanger Model PPD [%] !Hourly
1926,1,PERIMETER_TOP_ZN_4,Zone Thermal Comfort Fanger Model PPD [%] !Hourly
1927,1,PERIMETER_BOT_ZN_3,Zone Thermal Comfort Fanger Model PPD [%] !Hourly
1928,1,PERIMETER_BOT_ZN_2,Zone Thermal Comfort Fanger Model PPD [%] !Hourly
1929,1,PERIMETER_BOT_ZN_1,Zone Thermal Comfort Fanger Model PPD [%] !Hourly
1930,1,PERIMETER_BOT_ZN_4,Zone Thermal Comfort Fanger Model PPD [%] !Hourly
1931,1,PERIMETER_MID_ZN_3,Zone Thermal Comfort Fanger Model PPD [%] !Hourly
1932,1,PERIMETER_MID_ZN_2,Zone Thermal Comfort Fanger Model PPD [%] !Hourly
1933,1,PERIMETER_MID_ZN_1,Zone Thermal Comfort Fanger Model PPD [%] !Hourly
1934,1,PERIMETER_MID_ZN_4,Zone Thermal Comfort Fanger Model PPD [%] !Hourly
End of Data Dictionary
1,RUNPERIOD 1,  32.17,-110.88,  -7.00, 809.00
2,1,10,15, 1, 1, 0.00,60.00,Friday
9,0.0
11,0.0
13,0.0
15,0.0
17,0.0
19,0.0
21,0.0
23,0.0
25,0.0
27,0.0
29,0.0
31,0.0
33,0.0
35,0.0
37,0.0
1920,15.926237758418532
1921,12.882167981526138
1922,9.985663540585504
1923,6.521405020204497
1924,6.849744955812764
1925,7.746995654333659
1926,7.48504844307751
1927,9.240663234937694
1928,11.125328496876295
1929,14.738727301035383
1930,12.453725852114827
1931,7.916648644512321
1932,7.763667398867781
1933,9.61053165110554
1934,9.24563260510117
2,1,10,15, 1, 2, 0.00,60.00,Friday
9,0.0
11,0.0
13,0.0
15,0.0
17,0.0
19,0.0
21,0.0
23,0.0
25,0.0
27,0.0
29,0.0
31,0.0
33,0.0
35,0.0
37,0.0
1920,15.998190157653085
1921,12.98375163655021
1922,9.755958949741073
1923,6.387417774338085
1924,6.670548802254795
1925,7.458392344179565
1926,7.191009483089047
1927,9.274518100992351
1928,11.132828435961585
1929,14.641038430830039
1930,12.369482542374124
1931,7.933367725550052
1932,7.781096784506367
1933,9.465980515386617
1934,9.089943793990394
2,1,10,15, 1, 3, 0.00,60.00,Friday
9,0.0
11,0.0
13,0.0
15,0.0
17,0.0
19,0.0
21,0.0
23,0.0
25,0.0
27,0.0
29,0.0
31,0.0
33,0.0
35,0.0
37,0.0
1920,16.079711222114136
1921,13.060512484091623
1922,9.553517119212236
1923,6.0422152689337909
1924,6.248399990067995
1925,6.895842997373353
1926,6.648421671454663
1927,8.953185866128147
1928,10.642175841975276
1929,13.945670365153726
1930,11.765163085563266
1931,7.580740465408698
1932,7.417563102542665
1933,8.893866473088894
1934,8.513445239568066
2,1,10,15, 1, 4, 0.00,60.00,Friday
9,0.0
11,0.0
13,0.0
15,0.0
17,0.0
19,0.0
21,0.0
23,0.0
25,0.0
27,0.0
29,0.0
31,0.0
33,0.0
35,0.0
37,0.0
1920,16.12075427860127
1921,13.074906824215875
1922,9.2778238252321
1923,5.605921441957324
1924,5.726384483504087
1925,6.208646592294961
1926,6.004843152006321
1927,8.403792583166159
1928,9.893274753445447
1929,12.90150506438217
1930,10.8889369332742
1931,7.0101376119857099
1932,6.835263563480012
1933,8.0513904075344
1934,7.70604424724215
2,1,10,15, 1, 5, 0.00,60.00,Friday
9,0.0
11,0.0
13,0.0
15,0.0
17,0.0
19,0.0
21,0.0
23,0.0
25,0.0
27,0.0
29,0.0
31,0.0
33,0.0
35,0.0
37,0.0
1920,16.126392065622757
1921,13.024771122658187
1922,8.909911069736714
1923,5.310230466510833
1924,5.371265056774071
1925,5.714869552891564
1926,5.557707680192872
1927,8.019306222139195
1928,9.360669423911809
1929,12.11854566846372
1930,10.269358240011064
1931,6.595727475272156
1932,6.412881230940637
1933,7.4245477155112289
1934,7.112588021339282
2,1,10,15, 1, 6, 0.00,60.00,Friday
9,5.293866538198262
11,5.293866538198262
13,5.293866538198262
15,1.1159935258890757
17,0.7065162160575444
19,1.1159935258890757
21,0.7064698719305477
23,1.1159935258890757
25,0.7065162160575444
27,1.1159935258890757
29,0.7064698719305477
31,1.1159935258890757
33,0.7065162160575444
35,1.1159935258890757
37,0.7064698719305477
1920,8.331731396450279
1921,7.431173704114459
1922,6.092093398742534
1923,5.070394763869063
1924,5.071557562409448
1925,5.119146207849266
1926,5.091299302153253
1927,6.049296850552527
1928,6.403541701379036
1929,7.135155421303021
1930,6.66023904787465
1931,5.488050290013741
1932,5.527185675959163
1933,5.76984496707195
1934,5.665664655592018
2,1,10,15, 1, 7, 0.00,60.00,Friday
9,10.587733076396525
11,10.587733076396525
13,10.587733076396525
15,2.2319870517781514
17,1.4130324321150889
19,2.2319870517781514
21,1.4129397438610954
23,2.2319870517781514
25,1.4130324321150889
27,2.2319870517781514
29,1.4129397438610954
31,2.2319870517781514
33,1.4130324321150889
35,2.2319870517781514
37,1.4129397438610954
1920,5.771430471268424
1921,5.368267992797366
1922,5.13699675171384
1923,5.093266667262853
1924,5.070309985792939
1925,5.007080653264595
1926,5.026207654977675
1927,5.172963555489981
1928,5.433549900017714
1929,5.385745392083187
1930,5.296487702465444
1931,5.038186734691877
1932,5.448645604697854
1933,5.096421862641759
1934,5.070247718755378
2,1,10,15, 1, 8, 0.00,60.00,Friday
9,50.29173211288349
11,50.29173211288349
13,50.29173211288349
15,10.601938495946215
17,6.7119040525466719
19,10.601938495946215
21,6.711463783340204
23,10.601938495946215
25,6.7119040525466719
27,10.601938495946215
29,6.711463783340204
31,10.601938495946215
33,6.7119040525466719
35,10.601938495946215
37,6.711463783340204
1920,6.9853272259048639
1921,6.199593165491213
1922,5.720578235780844
1923,5.116049864144472
1924,7.090668144787159
1925,5.457605775030491
1926,5.174454432922779
1927,5.825520836864928
1928,7.990803194043086
1929,6.102013754518417
1930,6.077626272188868
1931,5.56740914514381
1932,7.578744907200829
1933,5.905241371681818
1934,5.6328652351527259
2,1,10,15, 1, 9, 0.00,60.00,Friday
9,50.29173211288349
11,50.29173211288349
13,50.29173211288349
15,10.601938495946215
17,6.7119040525466719
19,10.601938495946215
21,6.711463783340204
23,10.601938495946215
25,6.7119040525466719
27,10.601938495946215
29,6.711463783340204
31,10.601938495946215
33,6.7119040525466719
35,10.601938495946215
37,6.711463783340204
1920,7.846252231231543
1921,7.0924322049096919
1922,6.624646263849269
1923,5.965783276231266
1924,9.6887407373911
1925,7.229567988272241
1926,6.141225222763135
1927,6.820062982735007
1928,10.009681921039196
1929,8.05772754798948
1930,7.1480865102346959
1931,6.579883356730082
1932,9.124025268594578
1933,7.692624141340073
1934,6.661880655926002
2,1,10,15, 1,10, 0.00,60.00,Friday
9,51.652426635444069
11,51.652426635444069
13,51.652426635444069
15,10.888784842927822
17,6.893501517906446
19,10.888784842927822
21,6.89304933676391
23,10.888784842927822
25,6.893501517906446
27,10.888784842927822
29,6.89304933676391
31,10.888784842927822
33,0.0
35,10.888784842927822
37,6.89304933676391
1920,9.977325192766104
1921,8.964009874518032
1922,8.252118301596943
1923,7.461130118884763
1924,12.948923088645034
1925,11.3180205808891
1926,7.760528653575392
1927,8.72925694890755
1928,12.852070108270722
1929,11.648332049200436
1930,9.435898648804314
1931,8.283718330572422
1932,10.5229272179827
1933,11.692799639849709
1934,8.562590422716659
2,1,10,15, 1,11, 0.00,60.00,Friday
9,50.29173211288349
11,50.29173211288349
13,50.29173211288349
15,10.601938495946215
17,6.7119040525466719
19,10.601938495946215
21,6.711463783340204
23,10.601938495946215
25,6.7119040525466719
27,10.601938495946215
29,6.711463783340204
31,10.601938495946215
33,6.7119040525466719
35,10.601938495946215
37,6.711463783340204
1920,11.040830864669382
1921,10.265174566777395
1922,10.210113899144256
1923,9.71507532258424
1924,13.140050489159023
1925,14.420968650165755
1926,10.173498274363303
1927,10.312304424781568
1928,13.194114250022741
1929,14.049923101897392
1930,10.904704185442709
1931,10.16706671592339
1932,8.727270595580807
1933,14.521163834537349
1934,10.448577035766747
2,1,10,15, 1,12, 0.00,60.00,Friday
9,27.185487702865307
11,27.185487702865307
13,27.185487702865307
15,5.730939391014644
17,3.6281586936349727
19,5.730939391014644
21,3.6279207035599527
23,5.730939391014644
25,3.6281586936349727
27,5.730939391014644
29,3.6279207035599527
31,5.730939391014644
33,0.0
35,5.730939391014644
37,3.6279207035599527
1920,10.185407822152179
1921,9.260109497462717
1922,9.463361932863137
1923,9.526736568664921
1924,10.8716055956381
1925,14.5090826103109
1926,9.819030846468129
1927,9.567603050884367
1928,11.185053244956733
1929,17.484837392844456
1930,10.116256899878133
1931,9.419874484046622
1932,8.801366841183368
1933,14.402241418195424
1934,9.691540932061932
2,1,10,15, 1,13, 0.00,60.00,Friday
9,50.29173211288349
11,50.29173211288349
13,50.29173211288349
15,10.601938495946215
17,6.7119040525466719
19,10.601938495946215
21,6.711463783340204
23,10.601938495946215
25,6.7119040525466719
27,10.601938495946215
29,6.711463783340204
31,10.601938495946215
33,6.7119040525466719
35,10.601938495946215
37,6.711463783340204
1920,10.152699826450459
1921,9.306282791984016
1922,9.642418562273728
1923,9.760215105987698
1924,10.806762794794894
1925,15.322237508678735
1926,10.069846558140789
1927,9.619404447244144
1928,11.015388270457797
1929,17.70720212315471
1930,10.184135572926337
1931,9.515723149586102
1932,7.887223404701132
1933,15.93201582967322
1934,9.825637825075285
2,1,10,15, 1,14, 0.00,60.00,Friday
9,51.652426635444069
11,51.652426635444069
13,51.652426635444069
15,10.888784842927822
17,6.893501517906446
19,10.888784842927822
21,6.89304933676391
23,10.888784842927822
25,6.893501517906446
27,10.888784842927822
29,6.89304933676391
31,10.888784842927822
33,0.0
35,10.888784842927822
37,6.89304933676391
1920,10.447283313807186
1921,9.705689853593526
1922,10.134574695784707
1923,10.29205830667609
1924,11.17153117326473
1925,15.905810774300454
1926,11.787210402736008
1927,10.019108205393044
1928,11.26644230138586
1929,17.69958991659949
1930,11.402744023725733
1931,9.956445381872527
1932,8.77902324683563
1933,16.846594870209505
1934,11.429409632698603
2,1,10,15, 1,15, 0.00,60.00,Friday
9,50.29173211288349
11,50.29173211288349
13,50.29173211288349
15,10.601938495946215
17,6.7119040525466719
19,10.601938495946215
21,6.711463783340204
23,10.601938495946215
25,6.7119040525466719
27,10.601938495946215
29,6.711463783340204
31,10.601938495946215
33,6.7119040525466719
35,10.601938495946215
37,6.711463783340204
1920,9.07639950529466
1921,8.377344018253574
1922,8.742276415918126
1923,8.872850745721494
1924,9.473505444891762
1925,14.568166542505589
1926,12.188450359433512
1927,8.6567376893236
1928,9.595606110980837
1929,17.40712978446388
1930,11.321917810708398
1931,8.573019747073145
1932,7.934985876498966
1933,15.723749333281022
1934,11.793409151812745
2,1,10,15, 1,16, 0.00,60.00,Friday
9,50.29173211288349
11,50.29173211288349
13,50.29173211288349
15,10.601938495946215
17,6.7119040525466719
19,10.601938495946215
21,6.711463783340204
23,10.601938495946215
25,6.7119040525466719
27,10.601938495946215
29,6.711463783340204
31,10.601938495946215
33,6.7119040525466719
35,10.601938495946215
37,6.711463783340204
1920,10.155542287400858
1921,9.309642811124652
1922,9.693236369331752
1923,9.830896416544162
1924,10.345242343664838
1925,13.483727564634365
1926,15.31009290754267
1927,9.593921345454924
1928,10.50232846478918
1929,15.303971446366888
1930,14.030017986980683
1931,9.509866371472349
1932,7.647193136997646
1933,13.454790109835008
1934,14.876197691187843
2,1,10,15, 1,17, 0.00,60.00,Friday
9,15.881599614594786
11,15.881599614594786
13,15.881599614594786
15,3.347980577667226
17,2.1195486481726335
19,3.347980577667226
21,2.119409615791643
23,3.347980577667226
25,2.1195486481726335
27,3.347980577667226
29,2.119409615791643
31,3.347980577667226
33,2.1195486481726335
35,3.347980577667226
37,2.119409615791643
1920,14.584959469521272
1921,9.80243237842006
1922,10.531624881649343
1923,11.467529108217084
1924,12.740858409831665
1925,16.956438657711606
1926,21.640783793208688
1927,11.15373272378598
1928,13.542359214610612
1929,17.07494064191432
1930,20.87558518346221
1931,10.783563150769558
1932,7.231581791228256
1933,16.5356957275246
1934,21.173281834479324
2,1,10,15, 1,18, 0.00,60.00,Friday
9,5.293866538198262
11,5.293866538198262
13,5.293866538198262
15,1.1159935258890757
17,0.7065162160575444
19,1.1159935258890757
21,0.7064698719305477
23,1.1159935258890757
25,0.7065162160575444
27,1.1159935258890757
29,0.7064698719305477
31,1.1159935258890757
33,0.7065162160575444
35,1.1159935258890757
37,0.7064698719305477
1920,13.594400853810419
1921,9.17221197973874
1922,9.969242532196246
1923,10.971350338625668
1924,12.478044366873954
1925,15.08820450124732
1926,17.806751416888927
1927,10.923237826643513
1928,13.951610321113066
1929,15.417582801690055
1930,17.89751871630234
1931,10.19023445689801
1932,6.6909304532505209
1933,14.831486962600018
1934,17.5143104304818
2,1,10,15, 1,19, 0.00,60.00,Friday
9,5.293866538198262
11,5.293866538198262
13,5.293866538198262
15,1.1159935258890757
17,0.7065162160575444
19,1.1159935258890757
21,0.7064698719305477
23,1.1159935258890757
25,0.7065162160575444
27,1.1159935258890757
29,0.7064698719305477
31,1.1159935258890757
33,0.7065162160575444
35,1.1159935258890757
37,0.7064698719305477
1920,11.8818068708214
1921,8.40359974186982
1922,8.791558864449494
1923,9.213826698351332
1924,10.462834298244675
1925,13.032860888086832
1926,13.416237932403798
1927,9.622612297817959
1928,12.377196218711271
1929,14.053165628112021
1930,13.935800178269075
1931,8.81024664621409
1932,6.37290896556284
1933,12.960977238423299
1934,13.344623593612914
2,1,10,15, 1,20, 0.00,60.00,Friday
9,5.293866538198262
11,5.293866538198262
13,5.293866538198262
15,1.1159935258890757
17,0.7065162160575444
19,1.1159935258890757
21,0.7064698719305477
23,1.1159935258890757
25,0.7065162160575444
27,1.1159935258890757
29,0.7064698719305477
31,1.1159935258890757
33,0.7065162160575444
35,1.1159935258890757
37,0.7064698719305477
1920,10.258392622849718
1921,7.927764671457733
1922,7.880498016796804
1923,7.827399815696462
1924,8.797084727015557
1925,10.095479274192412
1926,10.253715752142848
1927,8.695105401283092
1928,10.28186411771348
1929,11.4356678346293
1930,11.03427769540368
1931,7.825369306507821
1932,6.162435357620372
1933,10.23117487829335
1934,10.380679580969366
2,1,10,15, 1,21, 0.00,60.00,Friday
9,5.293866538198262
11,5.293866538198262
13,5.293866538198262
15,1.1159935258890757
17,0.7065162160575444
19,1.1159935258890757
21,0.7064698719305477
23,1.1159935258890757
25,0.7065162160575444
27,1.1159935258890757
29,0.7064698719305477
31,1.1159935258890757
33,0.7065162160575444
35,1.1159935258890757
37,0.7064698719305477
1920,6.974842609085101
1921,6.176614844634575
1922,6.0426271572611489
1923,5.857957660879943
1924,6.073990062465491
1925,6.502478760756787
1926,6.481943859333531
1927,6.291490887593651
1928,6.803915128907505
1929,7.417221629693238
1930,7.0762049232129249
1931,5.9543952131883419
1932,5.934464990257912
1933,6.625294840709553
1934,6.601147536836019
2,1,10,15, 1,22, 0.00,60.00,Friday
9,2.646933269099131
11,2.646933269099131
13,2.646933269099131
15,0.5579967629445378
17,0.3532581080287722
19,0.5579967629445378
21,0.35323493596527386
23,0.5579967629445378
25,0.3532581080287722
27,0.5579967629445378
29,0.35323493596527386
31,0.5579967629445378
33,0.3532581080287722
35,0.5579967629445378
37,0.35323493596527386
1920,10.369217222533777
1921,8.49111767943788
1922,7.749796633370259
1923,6.5334627680434569
1924,6.878920908069148
1925,7.672797982265894
1926,7.561105795805067
1927,7.769297455849769
1928,9.02604195822302
1929,11.376603613832069
1930,10.005078262943267
1931,7.017166206364588
1932,7.130138482595524
1933,8.344992183205655
1934,8.194501969522007
2,1,10,15, 1,23, 0.00,60.00,Friday
9,2.646933269099131
11,2.646933269099131
13,2.646933269099131
15,0.5579967629445378
17,0.3532581080287722
19,0.5579967629445378
21,0.35323493596527386
23,0.5579967629445378
25,0.3532581080287722
27,0.5579967629445378
29,0.35323493596527386
31,0.5579967629445378
33,0.3532581080287722
35,0.5579967629445378
37,0.35323493596527386
1920,15.562153126397492
1921,12.429687098060102
1922,10.405275318777625
1923,7.253809749873983
1924,7.745462296849124
1925,8.950077621671165
1926,8.703659899262846
1927,9.553075782189474
1928,11.612606932234721
1929,15.408029310005979
1930,13.12326432084736
1931,8.359351893440257
1932,8.242969971579264
1933,10.461173859632793
1934,10.111779991664513
2,1,10,15, 1,24, 0.00,60.00,Friday
9,0.0
11,0.0
13,0.0
15,0.0
17,0.0
19,0.0
21,0.0
23,0.0
25,0.0
27,0.0
29,0.0
31,0.0
33,0.0
35,0.0
37,0.0
1920,16.038342039617687
1921,12.90510163788174
1922,10.35969600972363
1923,6.905683127927499
1924,7.32110100506938
1925,8.383281040224413
1926,8.124147651634459
1927,9.491230110336693
1928,11.492170129331362
1929,15.278057410513299
1930,12.93605851640359
1931,8.211176388743818
1932,8.066560348731868
1933,10.13554600397313
1934,9.788035012119856
End of Data
 Number of Records Written=         720
