Program Version,EnergyPlus, Version 9.0.1-bb7ca4f0da, YMD=2021.11.05 05:48
1,5,Environment Title[],Latitude[deg],Longitude[deg],Time Zone[],Elevation[m]
2,8,Day of Simulation[],Month[],Day of Month[],DST Indicator[1=yes 0=no],Hour[],StartMinute[],EndMinute[],DayType
3,5,Cumulative Day of Simulation[],Month[],Day of Month[],DST Indicator[1=yes 0=no],DayType  ! When Daily Meters Requested
4,2,Cumulative Days of Simulation[],Month[]  ! When Monthly Meters Requested
5,1,Cumulative Days of Simulation[] ! When Run Period Meters Requested
6,1,Calendar Year of Simulation[] ! When Annual Meters Requested
40,1,Electricity:Facility [J] !Hourly
1885,1,ElectricityNet:Facility [J] !Hourly
772,1,Gas:Facility [J] !Hourly
End of Data Dictionary
1,RUNPERIOD 1,  32.17,-110.88,  -7.00, 809.00
2,1,10,15, 1, 1, 0.00,60.00,Friday
40,57609639.64985575
772,6791184.0
1885,57609639.64985575
2,1,10,15, 1, 2, 0.00,60.00,Friday
40,57609860.1137362
772,6791184.0
1885,57609860.1137362
2,1,10,15, 1, 3, 0.00,60.00,Friday
40,57609860.1137362
772,6791184.0
1885,57609860.1137362
2,1,10,15, 1, 4, 0.00,60.00,Friday
40,57609860.1137362
772,6791184.0
1885,57609860.1137362
2,1,10,15, 1, 5, 0.00,60.00,Friday
40,57609860.1137362
772,6791184.0
1885,57609860.1137362
2,1,10,15, 1, 6, 0.00,60.00,Friday
40,182811791.6513849
772,6791184.0
1885,182811791.6513849
2,1,10,15, 1, 7, 0.00,60.00,Friday
40,216898140.2153113
772,6791184.0
1885,216898140.21531124
2,1,10,15, 1, 8, 0.00,60.00,Friday
40,326499899.193224
772,6791184.0
1885,326499899.193224
2,1,10,15, 1, 9, 0.00,60.00,Friday
40,323017939.5204634
772,6791184.0
1885,323017939.5204634
2,1,10,15, 1,10, 0.00,60.00,Friday
40,382037036.81570306
772,6791184.0
1885,382037036.8157029
2,1,10,15, 1,11, 0.00,60.00,Friday
40,436153843.8530873
772,11220132.501838908
1885,436153843.8530873
2,1,10,15, 1,12, 0.00,60.00,Friday
40,445844183.36260488
772,20466685.794789655
1885,445844183.36260476
2,1,10,15, 1,13, 0.00,60.00,Friday
40,424594796.61339208
772,20314947.780690709
1885,424594796.61339208
2,1,10,15, 1,14, 0.00,60.00,Friday
40,371341141.3541229
772,11077839.785837993
1885,371341141.3541229
2,1,10,15, 1,15, 0.00,60.00,Friday
40,428774744.35536959
772,11047017.256745898
1885,428774744.35536959
2,1,10,15, 1,16, 0.00,60.00,Friday
40,409975049.4408417
772,15566217.179612989
1885,409975049.44084158
2,1,10,15, 1,17, 0.00,60.00,Friday
40,321093013.58450046
772,10977038.807434995
1885,321093013.5845004
2,1,10,15, 1,18, 0.00,60.00,Friday
40,191450807.15272514
772,10249315.917301707
1885,191450807.15272514
2,1,10,15, 1,19, 0.00,60.00,Friday
40,166930985.36488489
772,7445599.299706251
1885,166930985.36488486
2,1,10,15, 1,20, 0.00,60.00,Friday
40,188590415.86121429
772,6791184.0
1885,188590415.86121429
2,1,10,15, 1,21, 0.00,60.00,Friday
40,135714492.33838285
772,6791184.0
1885,135714492.33838288
2,1,10,15, 1,22, 0.00,60.00,Friday
40,77772390.65670999
772,6791184.0
1885,77772390.65670999
2,1,10,15, 1,23, 0.00,60.00,Friday
40,72442274.24247962
772,6791184.0
1885,72442274.24247962
2,1,10,15, 1,24, 0.00,60.00,Friday
40,57996196.7332391
772,6791184.0
1885,57996196.7332391
End of Data
 Number of Records Written=          72
