Program Version,EnergyPlus, Version 9.0.1-bb7ca4f0da, YMD=2021.11.02 02:06
1,5,Environment Title[],Latitude[deg],Longitude[deg],Time Zone[],Elevation[m]
2,8,Day of Simulation[],Month[],Day of Month[],DST Indicator[1=yes 0=no],Hour[],StartMinute[],EndMinute[],DayType
3,5,Cumulative Day of Simulation[],Month[],Day of Month[],DST Indicator[1=yes 0=no],DayType  ! When Daily Report Variables Requested
4,2,Cumulative Days of Simulation[],Month[]  ! When Monthly Report Variables Requested
5,1,Cumulative Days of Simulation[] ! When Run Period Report Variables Requested
6,1,Calendar Year of Simulation[] ! When Annual Report Variables Requested
9,1,CORE_BOTTOM,Zone People Occupant Count [] !Hourly
11,1,CORE_MID,Zone People Occupant Count [] !Hourly
13,1,CORE_TOP,Zone People Occupant Count [] !Hourly
15,1,PERIMETER_TOP_ZN_3,Zone People Occupant Count [] !Hourly
17,1,PERIMETER_TOP_ZN_2,Zone People Occupant Count [] !Hourly
19,1,PERIMETER_TOP_ZN_1,Zone People Occupant Count [] !Hourly
21,1,PERIMETER_TOP_ZN_4,Zone People Occupant Count [] !Hourly
23,1,PERIMETER_BOT_ZN_3,Zone People Occupant Count [] !Hourly
25,1,PERIMETER_BOT_ZN_2,Zone People Occupant Count [] !Hourly
27,1,PERIMETER_BOT_ZN_1,Zone People Occupant Count [] !Hourly
29,1,PERIMETER_BOT_ZN_4,Zone People Occupant Count [] !Hourly
31,1,PERIMETER_MID_ZN_3,Zone People Occupant Count [] !Hourly
33,1,PERIMETER_MID_ZN_2,Zone People Occupant Count [] !Hourly
35,1,PERIMETER_MID_ZN_1,Zone People Occupant Count [] !Hourly
37,1,PERIMETER_MID_ZN_4,Zone People Occupant Count [] !Hourly
1920,1,CORE_BOTTOM,Zone Thermal Comfort Fanger Model PPD [%] !Hourly
1921,1,CORE_MID,Zone Thermal Comfort Fanger Model PPD [%] !Hourly
1922,1,CORE_TOP,Zone Thermal Comfort Fanger Model PPD [%] !Hourly
1923,1,PERIMETER_TOP_ZN_3,Zone Thermal Comfort Fanger Model PPD [%] !Hourly
1924,1,PERIMETER_TOP_ZN_2,Zone Thermal Comfort Fanger Model PPD [%] !Hourly
1925,1,PERIMETER_TOP_ZN_1,Zone Thermal Comfort Fanger Model PPD [%] !Hourly
1926,1,PERIMETER_TOP_ZN_4,Zone Thermal Comfort Fanger Model PPD [%] !Hourly
1927,1,PERIMETER_BOT_ZN_3,Zone Thermal Comfort Fanger Model PPD [%] !Hourly
1928,1,PERIMETER_BOT_ZN_2,Zone Thermal Comfort Fanger Model PPD [%] !Hourly
1929,1,PERIMETER_BOT_ZN_1,Zone Thermal Comfort Fanger Model PPD [%] !Hourly
1930,1,PERIMETER_BOT_ZN_4,Zone Thermal Comfort Fanger Model PPD [%] !Hourly
1931,1,PERIMETER_MID_ZN_3,Zone Thermal Comfort Fanger Model PPD [%] !Hourly
1932,1,PERIMETER_MID_ZN_2,Zone Thermal Comfort Fanger Model PPD [%] !Hourly
1933,1,PERIMETER_MID_ZN_1,Zone Thermal Comfort Fanger Model PPD [%] !Hourly
1934,1,PERIMETER_MID_ZN_4,Zone Thermal Comfort Fanger Model PPD [%] !Hourly
End of Data Dictionary
1,RUNPERIOD 1,  32.17,-110.88,  -7.00, 809.00
2,1,10,15, 1, 1, 0.00,60.00,Friday
9,0.0
11,0.0
13,0.0
15,0.0
17,0.0
19,0.0
21,0.0
23,0.0
25,0.0
27,0.0
29,0.0
31,0.0
33,0.0
35,0.0
37,0.0
1920,12.693919934106676
1921,10.042915074339178
1922,7.703448995539392
1923,5.483216242017288
1924,5.708686968033104
1925,6.257855235187425
1926,5.999382281284023
1927,7.505584202576597
1928,9.080032725350675
1929,12.148989300038793
1930,9.789416011999764
1931,6.449047069967446
1932,6.778980506811735
1933,7.671225555340523
1934,7.248663696230689
2,1,10,15, 1, 2, 0.00,60.00,Friday
9,0.0
11,0.0
13,0.0
15,0.0
17,0.0
19,0.0
21,0.0
23,0.0
25,0.0
27,0.0
29,0.0
31,0.0
33,0.0
35,0.0
37,0.0
1920,12.772396986722177
1921,10.135830072927752
1922,7.573868936027172
1923,5.422589987170319
1924,5.613326176121748
1925,6.086216638392853
1926,5.841535937805605
1927,7.560696723739437
1928,9.075292689129926
1929,12.083753104918037
1930,9.750370816639455
1931,6.471096246340544
1932,6.757906635083103
1933,7.588524103604783
1934,7.164231771426458
2,1,10,15, 1, 3, 0.00,60.00,Friday
9,0.0
11,0.0
13,0.0
15,0.0
17,0.0
19,0.0
21,0.0
23,0.0
25,0.0
27,0.0
29,0.0
31,0.0
33,0.0
35,0.0
37,0.0
1920,12.85548423113545
1921,10.20940792973846
1922,7.4561865237091
1923,5.25102118031014
1924,5.377796583139156
1925,5.737497716186726
1926,5.535976569479769
1927,7.307223900969078
1928,8.713176193259758
1929,11.500095743888423
1930,9.295289295581988
1931,6.229007205005272
1932,6.4421182185843739
1933,7.15840218831799
1934,6.769234324277569
2,1,10,15, 1, 4, 0.00,60.00,Friday
9,0.0
11,0.0
13,0.0
15,0.0
17,0.0
19,0.0
21,0.0
23,0.0
25,0.0
27,0.0
29,0.0
31,0.0
33,0.0
35,0.0
37,0.0
1920,12.902985615054249
1921,10.23337477102406
1922,7.280981540667182
1923,5.073631715879159
1924,5.12988487346685
1925,5.349289323656137
1926,5.215546424598915
1927,6.897810501013777
1928,8.111785881310814
1929,10.629658247446243
1930,8.648582877261225
1931,5.851656664997837
1932,5.982601724275933
1933,6.555320202440998
1934,6.228295214416498
2,1,10,15, 1, 5, 0.00,60.00,Friday
9,0.0
11,0.0
13,0.0
15,0.0
17,0.0
19,0.0
21,0.0
23,0.0
25,0.0
27,0.0
29,0.0
31,0.0
33,0.0
35,0.0
37,0.0
1920,12.919788550038005
1921,10.206196745650104
1922,7.038149449360695
1923,5.00305922895852
1924,5.014624708733507
1925,5.117191499654649
1926,5.046596885223496
1927,6.620178831932786
1928,7.684418985096708
1929,9.982885744460864
1930,8.165964614540194
1931,5.593882310618919
1932,5.665771606431629
1933,6.125569627466933
1934,5.853510350124161
2,1,10,15, 1, 6, 0.00,60.00,Friday
9,5.293866538198262
11,5.293866538198262
13,5.293866538198262
15,1.1159935258890757
17,0.7065162160575444
19,1.1159935258890757
21,0.7064698719305477
23,1.1159935258890757
25,0.7065162160575444
27,1.1159935258890757
29,0.7064698719305477
31,1.1159935258890757
33,0.7065162160575444
35,1.1159935258890757
37,0.7064698719305477
1920,7.654345183615637
1921,6.767434453342086
1922,5.5532619064619939
1923,5.242533573133166
1924,5.195135951587503
1925,5.094900932250714
1926,5.142086802569722
1927,5.631426282833734
1928,6.080655789496935
1929,6.581597204296155
1930,6.241153869141836
1931,5.1399179161653338
1932,5.1755887802421329
1933,5.306384581870193
1934,5.215322430940944
2,1,10,15, 1, 7, 0.00,60.00,Friday
9,10.587733076396525
11,10.587733076396525
13,10.587733076396525
15,2.2319870517781514
17,1.4130324321150889
19,2.2319870517781514
21,1.4129397438610954
23,2.2319870517781514
25,1.4130324321150889
27,2.2319870517781514
29,1.4129397438610954
31,2.2319870517781514
33,1.4130324321150889
35,2.2319870517781514
37,1.4129397438610954
1920,5.514342312219178
1921,5.2368143157763049
1922,5.0142322797988358
1923,5.553502641550885
1924,5.2747242745830749
1925,5.261597277003574
1926,5.379487981204929
1927,5.050706167486051
1928,5.263659617150812
1929,5.320474265834437
1930,5.176753678644114
1931,5.009751611190474
1932,5.205185841958304
1933,5.008170727218638
1934,5.00649102655871
2,1,10,15, 1, 8, 0.00,60.00,Friday
9,50.29173211288349
11,50.29173211288349
13,50.29173211288349
15,10.601938495946215
17,6.7119040525466719
19,10.601938495946215
21,6.711463783340204
23,10.601938495946215
25,6.7119040525466719
27,10.601938495946215
29,6.711463783340204
31,10.601938495946215
33,6.7119040525466719
35,10.601938495946215
37,6.711463783340204
1920,10.1196481201465
1921,6.597891926302869
1922,5.5216668611115129
1923,5.128722761191997
1924,9.379498694917416
1925,5.235557567333477
1926,5.093702046603117
1927,5.792687868170025
1928,11.513183604568143
1929,6.27400563342469
1930,6.3830442269379239
1931,5.330487139542008
1932,7.30001578798407
1933,5.920707589647823
1934,5.397365867579313
2,1,10,15, 1, 9, 0.00,60.00,Friday
9,50.29173211288349
11,50.29173211288349
13,50.29173211288349
15,10.601938495946215
17,6.7119040525466719
19,10.601938495946215
21,6.711463783340204
23,10.601938495946215
25,6.7119040525466719
27,10.601938495946215
29,6.711463783340204
31,10.601938495946215
33,6.7119040525466719
35,10.601938495946215
37,6.711463783340204
1920,7.317542667299246
1921,6.13329492413425
1922,5.5143654477519539
1923,5.138768298292855
1924,8.785671672139119
1925,5.7541542810167629
1926,5.17169606255153
1927,5.74977931088937
1928,9.381375467317176
1929,6.757740403729161
1930,6.089657219338075
1931,5.445337944061291
1932,8.821555553308622
1933,6.360914751678685
1934,5.485572856223501
2,1,10,15, 1,10, 0.00,60.00,Friday
9,51.652426635444069
11,51.652426635444069
13,51.652426635444069
15,10.888784842927822
17,6.893501517906446
19,10.888784842927822
21,6.89304933676391
23,10.888784842927822
25,6.893501517906446
27,10.888784842927822
29,6.89304933676391
31,10.888784842927822
33,0.0
35,10.888784842927822
37,6.89304933676391
1920,5.380589938426877
1921,5.1433589593183559
1922,5.079913540030948
1923,5.041764105737094
1924,6.243653317720496
1925,5.575248533412825
1926,5.0506097057040268
1927,5.129092208590397
1928,6.478296262190585
1929,6.723939706361835
1930,5.203733365614184
1931,5.073568566787571
1932,10.198926964100757
1933,6.051777460665932
1934,5.082626251031073
2,1,10,15, 1,11, 0.00,60.00,Friday
9,50.29173211288349
11,50.29173211288349
13,50.29173211288349
15,10.601938495946215
17,6.7119040525466719
19,10.601938495946215
21,6.711463783340204
23,10.601938495946215
25,6.7119040525466719
27,10.601938495946215
29,6.711463783340204
31,10.601938495946215
33,6.7119040525466719
35,10.601938495946215
37,6.711463783340204
1920,7.836254839860172
1921,6.627811895130549
1922,6.32378441152913
1923,6.193667651560439
1924,9.073986668801937
1925,10.004656660383932
1926,6.395485367988502
1927,6.758314092707458
1928,9.318113786494484
1929,10.525072835447196
1930,7.2989530281734009
1931,6.479193108168357
1932,8.305936580039207
1933,10.494845024569413
1934,6.6409415899784209
2,1,10,15, 1,12, 0.00,60.00,Friday
9,27.185487702865307
11,27.185487702865307
13,27.185487702865307
15,5.730939391014644
17,3.6281586936349727
19,5.730939391014644
21,3.6279207035599527
23,5.730939391014644
25,3.6281586936349727
27,5.730939391014644
29,3.6279207035599527
31,5.730939391014644
33,0.0
35,5.730939391014644
37,3.6279207035599527
1920,13.964065572637422
1921,8.273132470154737
1922,8.266782076759407
1923,8.53778754606269
1924,12.711528166465394
1925,21.02129263884137
1926,9.058578745171327
1927,8.990796139702667
1928,13.78783473171994
1929,19.747664953938455
1930,10.302499893216109
1931,8.604513105399877
1932,8.327786951364465
1933,21.03481085288306
1934,9.12527106209332
2,1,10,15, 1,13, 0.00,60.00,Friday
9,50.29173211288349
11,50.29173211288349
13,50.29173211288349
15,10.601938495946215
17,6.7119040525466719
19,10.601938495946215
21,6.711463783340204
23,10.601938495946215
25,6.7119040525466719
27,10.601938495946215
29,6.711463783340204
31,10.601938495946215
33,6.7119040525466719
35,10.601938495946215
37,6.711463783340204
1920,15.667710879521012
1921,9.627684989476807
1922,10.2901367600004
1923,11.293672071343364
1924,16.855828971044518
1925,23.826700980125254
1926,12.36098433578861
1927,11.283162738549386
1928,17.310268123016909
1929,21.814677205118739
1930,13.517326510776229
1931,10.723846146911392
1932,7.49712042616638
1933,23.326618387323678
1934,11.83197921800413
2,1,10,15, 1,14, 0.00,60.00,Friday
9,51.652426635444069
11,51.652426635444069
13,51.652426635444069
15,10.888784842927822
17,6.893501517906446
19,10.888784842927822
21,6.89304933676391
23,10.888784842927822
25,6.893501517906446
27,10.888784842927822
29,6.89304933676391
31,10.888784842927822
33,0.0
35,10.888784842927822
37,6.89304933676391
1920,12.559825629931665
1921,10.798734484310529
1922,11.597109099662142
1923,12.144744742523491
1924,14.096154229259854
1925,19.615309158387459
1926,14.186468965106665
1927,11.674676922265958
1928,14.104691829749635
1929,18.367404615925844
1930,13.762920497600524
1931,11.475128940409129
1932,8.356310517957719
1933,18.845181315639974
1934,13.48457039908479
2,1,10,15, 1,15, 0.00,60.00,Friday
9,50.29173211288349
11,50.29173211288349
13,50.29173211288349
15,10.601938495946215
17,6.7119040525466719
19,10.601938495946215
21,6.711463783340204
23,10.601938495946215
25,6.7119040525466719
27,10.601938495946215
29,6.711463783340204
31,10.601938495946215
33,6.7119040525466719
35,10.601938495946215
37,6.711463783340204
1920,7.823004961173837
1921,7.217869938868368
1922,7.586516548374223
1923,7.657164393554869
1924,8.17592519612563
1925,15.086035264037826
1926,10.211053923682206
1927,7.558787798020518
1928,8.352830222799005
1929,16.552200661754026
1930,9.61459093604662
1931,7.373954970048352
1932,7.641385428092566
1933,15.44612553779764
1934,9.792597736530988
2,1,10,15, 1,16, 0.00,60.00,Friday
9,50.29173211288349
11,50.29173211288349
13,50.29173211288349
15,10.601938495946215
17,6.7119040525466719
19,10.601938495946215
21,6.711463783340204
23,10.601938495946215
25,6.7119040525466719
27,10.601938495946215
29,6.711463783340204
31,10.601938495946215
33,6.7119040525466719
35,10.601938495946215
37,6.711463783340204
1920,7.873483302636757
1921,7.070256839224932
1922,7.342168455009187
1923,7.462417591268498
1924,7.921847196009819
1925,11.05846147559267
1926,11.696031768813536
1927,7.359996742187019
1928,8.153126992361037
1929,14.244390506829639
1930,10.797822745308486
1931,7.217562155178077
1932,7.445365346346276
1933,11.603062693316117
1934,11.315623277267598
2,1,10,15, 1,17, 0.00,60.00,Friday
9,15.881599614594786
11,15.881599614594786
13,15.881599614594786
15,3.347980577667226
17,2.1195486481726335
19,3.347980577667226
21,2.119409615791643
23,3.347980577667226
25,2.1195486481726335
27,3.347980577667226
29,2.119409615791643
31,3.347980577667226
33,2.1195486481726335
35,3.347980577667226
37,2.119409615791643
1920,10.934695134654888
1921,7.835516408986661
1922,8.33348507900716
1923,9.172309728681953
1924,10.354956346875627
1925,12.662112120285427
1926,16.187828897964974
1927,9.073273813206404
1928,10.999541399739764
1929,14.562570562127645
1930,15.76638766461211
1931,8.667247838183828
1932,7.058037275162749
1933,12.399489169611947
1934,15.80616796460827
2,1,10,15, 1,18, 0.00,60.00,Friday
9,5.293866538198262
11,5.293866538198262
13,5.293866538198262
15,1.1159935258890757
17,0.7065162160575444
19,1.1159935258890757
21,0.7064698719305477
23,1.1159935258890757
25,0.7065162160575444
27,1.1159935258890757
29,0.7064698719305477
31,1.1159935258890757
33,0.7065162160575444
35,1.1159935258890757
37,0.7064698719305477
1920,9.09291032419847
1921,7.6459020207055519
1922,8.01447952624735
1923,8.365664140373296
1924,8.94804930697626
1925,9.761111829029327
1926,11.61919601205217
1927,8.459746341918108
1928,9.429440027596966
1929,10.566639626247328
1930,11.90908750160112
1931,8.098880625096575
1932,6.561392836234816
1933,9.582126032387818
1934,11.387877292280324
2,1,10,15, 1,19, 0.00,60.00,Friday
9,5.293866538198262
11,5.293866538198262
13,5.293866538198262
15,1.1159935258890757
17,0.7065162160575444
19,1.1159935258890757
21,0.7064698719305477
23,1.1159935258890757
25,0.7065162160575444
27,1.1159935258890757
29,0.7064698719305477
31,1.1159935258890757
33,0.7065162160575444
35,1.1159935258890757
37,0.7064698719305477
1920,8.611221915786724
1921,7.049835864521877
1922,7.2166828628662
1923,7.476657848105397
1924,8.147239080606419
1925,8.69240169136456
1926,8.847390073696447
1927,7.864791020054166
1928,8.7116959588913
1929,9.653429649426043
1930,9.385714323132886
1931,7.368594596423759
1932,6.230589754201496
1933,8.666209305198406
1934,8.815716706389324
2,1,10,15, 1,20, 0.00,60.00,Friday
9,5.293866538198262
11,5.293866538198262
13,5.293866538198262
15,1.1159935258890757
17,0.7065162160575444
19,1.1159935258890757
21,0.7064698719305477
23,1.1159935258890757
25,0.7065162160575444
27,1.1159935258890757
29,0.7064698719305477
31,1.1159935258890757
33,0.7065162160575444
35,1.1159935258890757
37,0.7064698719305477
1920,5.63073633155138
1921,5.3773884766642399
1922,5.391453032066671
1923,5.444618810497573
1924,5.547507938971826
1925,5.6281546680671969
1926,5.623548779706023
1927,5.480141228661457
1928,5.6238475809363879
1929,6.390672285173875
1930,5.72640404164522
1931,5.422914449061125
1932,6.005247194563563
1933,5.647005693515098
1934,5.621469354440056
2,1,10,15, 1,21, 0.00,60.00,Friday
9,5.293866538198262
11,5.293866538198262
13,5.293866538198262
15,1.1159935258890757
17,0.7065162160575444
19,1.1159935258890757
21,0.7064698719305477
23,1.1159935258890757
25,0.7065162160575444
27,1.1159935258890757
29,0.7064698719305477
31,1.1159935258890757
33,0.7065162160575444
35,1.1159935258890757
37,0.7064698719305477
1920,5.505837350198398
1921,5.216642357254152
1922,5.129663604845405
1923,5.083093470030318
1924,5.134375603821184
1925,5.227965383721734
1926,5.211152099170583
1927,5.246681543539142
1928,5.399654946933509
1929,5.784959016106602
1930,5.503524603055378
1931,5.139039123391157
1932,5.785135812053454
1933,5.298633816130004
1934,5.271672354325593
2,1,10,15, 1,22, 0.00,60.00,Friday
9,2.646933269099131
11,2.646933269099131
13,2.646933269099131
15,0.5579967629445378
17,0.3532581080287722
19,0.5579967629445378
21,0.35323493596527386
23,0.5579967629445378
25,0.3532581080287722
27,0.5579967629445378
29,0.35323493596527386
31,0.5579967629445378
33,0.3532581080287722
35,0.5579967629445378
37,0.35323493596527386
1920,8.677412103904322
1921,7.128130218805734
1922,6.407254487285421
1923,5.535772388896099
1924,5.836099029185952
1925,6.363235670362331
1926,6.191075258162307
1927,6.588699507441722
1928,7.6160510927537718
1929,9.680984752306286
1930,8.194166828673764
1931,6.003243459750266
1932,6.6184168440847419
1933,6.975404072077436
1934,6.731818565727255
2,1,10,15, 1,23, 0.00,60.00,Friday
9,2.646933269099131
11,2.646933269099131
13,2.646933269099131
15,0.5579967629445378
17,0.3532581080287722
19,0.5579967629445378
21,0.35323493596527386
23,0.5579967629445378
25,0.3532581080287722
27,0.5579967629445378
29,0.35323493596527386
31,0.5579967629445378
33,0.3532581080287722
35,0.5579967629445378
37,0.35323493596527386
1920,12.264338060401038
1921,9.660352976043117
1922,7.889234384324619
1923,5.857055350747598
1924,6.227572415508398
1925,7.025645313594121
1926,6.714923605932796
1927,7.714236460477902
1928,9.358017710552618
1929,12.621064009613726
1930,10.22654513142995
1931,6.738822253706168
1932,7.2891807054685489
1933,8.302763322698162
1934,7.843956189518717
2,1,10,15, 1,24, 0.00,60.00,Friday
9,0.0
11,0.0
13,0.0
15,0.0
17,0.0
19,0.0
21,0.0
23,0.0
25,0.0
27,0.0
29,0.0
31,0.0
33,0.0
35,0.0
37,0.0
1920,12.69896174733355
1921,10.035573376016814
1922,7.918083956227808
1923,5.681462123033607
1924,5.982043533039973
1925,6.662532690092131
1926,6.372985064175275
1927,7.669325261481684
1928,9.313140004094512
1929,12.53201047583782
1930,10.110551449388949
1931,6.641325888924214
1932,7.065308290530886
1933,8.064065720580255
1934,7.615393443270601
End of Data
 Number of Records Written=         720
