Program Version,EnergyPlus, Version 9.0.1-bb7ca4f0da, YMD=2021.11.02 23:18
1,5,Environment Title[],Latitude[deg],Longitude[deg],Time Zone[],Elevation[m]
2,8,Day of Simulation[],Month[],Day of Month[],DST Indicator[1=yes 0=no],Hour[],StartMinute[],EndMinute[],DayType
3,5,Cumulative Day of Simulation[],Month[],Day of Month[],DST Indicator[1=yes 0=no],DayType  ! When Daily Report Variables Requested
4,2,Cumulative Days of Simulation[],Month[]  ! When Monthly Report Variables Requested
5,1,Cumulative Days of Simulation[] ! When Run Period Report Variables Requested
6,1,Calendar Year of Simulation[] ! When Annual Report Variables Requested
9,1,CORE_BOTTOM,Zone People Occupant Count [] !Hourly
11,1,CORE_MID,Zone People Occupant Count [] !Hourly
13,1,CORE_TOP,Zone People Occupant Count [] !Hourly
15,1,PERIMETER_TOP_ZN_3,Zone People Occupant Count [] !Hourly
17,1,PERIMETER_TOP_ZN_2,Zone People Occupant Count [] !Hourly
19,1,PERIMETER_TOP_ZN_1,Zone People Occupant Count [] !Hourly
21,1,PERIMETER_TOP_ZN_4,Zone People Occupant Count [] !Hourly
23,1,PERIMETER_BOT_ZN_3,Zone People Occupant Count [] !Hourly
25,1,PERIMETER_BOT_ZN_2,Zone People Occupant Count [] !Hourly
27,1,PERIMETER_BOT_ZN_1,Zone People Occupant Count [] !Hourly
29,1,PERIMETER_BOT_ZN_4,Zone People Occupant Count [] !Hourly
31,1,PERIMETER_MID_ZN_3,Zone People Occupant Count [] !Hourly
33,1,PERIMETER_MID_ZN_2,Zone People Occupant Count [] !Hourly
35,1,PERIMETER_MID_ZN_1,Zone People Occupant Count [] !Hourly
37,1,PERIMETER_MID_ZN_4,Zone People Occupant Count [] !Hourly
1920,1,CORE_BOTTOM,Zone Thermal Comfort Fanger Model PPD [%] !Hourly
1921,1,CORE_MID,Zone Thermal Comfort Fanger Model PPD [%] !Hourly
1922,1,CORE_TOP,Zone Thermal Comfort Fanger Model PPD [%] !Hourly
1923,1,PERIMETER_TOP_ZN_3,Zone Thermal Comfort Fanger Model PPD [%] !Hourly
1924,1,PERIMETER_TOP_ZN_2,Zone Thermal Comfort Fanger Model PPD [%] !Hourly
1925,1,PERIMETER_TOP_ZN_1,Zone Thermal Comfort Fanger Model PPD [%] !Hourly
1926,1,PERIMETER_TOP_ZN_4,Zone Thermal Comfort Fanger Model PPD [%] !Hourly
1927,1,PERIMETER_BOT_ZN_3,Zone Thermal Comfort Fanger Model PPD [%] !Hourly
1928,1,PERIMETER_BOT_ZN_2,Zone Thermal Comfort Fanger Model PPD [%] !Hourly
1929,1,PERIMETER_BOT_ZN_1,Zone Thermal Comfort Fanger Model PPD [%] !Hourly
1930,1,PERIMETER_BOT_ZN_4,Zone Thermal Comfort Fanger Model PPD [%] !Hourly
1931,1,PERIMETER_MID_ZN_3,Zone Thermal Comfort Fanger Model PPD [%] !Hourly
1932,1,PERIMETER_MID_ZN_2,Zone Thermal Comfort Fanger Model PPD [%] !Hourly
1933,1,PERIMETER_MID_ZN_1,Zone Thermal Comfort Fanger Model PPD [%] !Hourly
1934,1,PERIMETER_MID_ZN_4,Zone Thermal Comfort Fanger Model PPD [%] !Hourly
End of Data Dictionary
1,RUNPERIOD 1,  32.17,-110.88,  -7.00, 809.00
2,1,10,15, 1, 1, 0.00,60.00,Friday
9,0.0
11,0.0
13,0.0
15,0.0
17,0.0
19,0.0
21,0.0
23,0.0
25,0.0
27,0.0
29,0.0
31,0.0
33,0.0
35,0.0
37,0.0
1920,12.380182963437266
1921,9.858447811852282
1922,7.595011139956628
1923,5.429654693445694
1924,5.66264166900235
1925,6.323009362030142
1926,6.035658598542359
1927,7.311574526243049
1928,8.903179271538115
1929,12.380670563524648
1930,9.83226775507689
1931,6.342544926245888
1932,6.703296359835693
1933,7.744078768735115
1934,7.2740463223864328
2,1,10,15, 1, 2, 0.00,60.00,Friday
9,0.0
11,0.0
13,0.0
15,0.0
17,0.0
19,0.0
21,0.0
23,0.0
25,0.0
27,0.0
29,0.0
31,0.0
33,0.0
35,0.0
37,0.0
1920,12.448146678734889
1921,9.943179734199953
1922,7.45044165517658
1923,5.3671451663646769
1924,5.561933854294615
1925,6.123892555348211
1926,5.856394533748059
1927,7.357971580707885
1928,8.905089826563194
1929,12.28565580172078
1930,9.77744377190251
1931,6.357885989113481
1932,6.676124888413942
1933,7.633444581010735
1934,7.167272826152046
2,1,10,15, 1, 3, 0.00,60.00,Friday
9,0.0
11,0.0
13,0.0
15,0.0
17,0.0
19,0.0
21,0.0
23,0.0
25,0.0
27,0.0
29,0.0
31,0.0
33,0.0
35,0.0
37,0.0
1920,12.526485053985456
1921,10.014952116912597
1922,7.327360042285726
1923,5.206962479336977
1924,5.3342555690479049
1925,5.755538231946939
1926,5.537985982662427
1927,7.112612076377277
1928,8.536909139720012
1929,11.680634629596199
1930,9.31132298624356
1931,6.123868862658109
1932,6.364232335987826
1933,7.181216004429629
1934,6.758474116421986
2,1,10,15, 1, 4, 0.00,60.00,Friday
9,0.0
11,0.0
13,0.0
15,0.0
17,0.0
19,0.0
21,0.0
23,0.0
25,0.0
27,0.0
29,0.0
31,0.0
33,0.0
35,0.0
37,0.0
1920,12.572279837149111
1921,10.040309255921733
1922,7.153386676274619
1923,5.051387065659459
1924,5.1046658893387308
1925,5.355289083686951
1926,5.2126056832138139
1927,6.721020998831499
1928,7.944820252820165
1929,10.786255177573109
1930,8.65532184527303
1931,5.764864515313898
1932,5.9168739046688449
1933,6.562624773201466
1934,6.210966648262937
2,1,10,15, 1, 5, 0.00,60.00,Friday
9,0.0
11,0.0
13,0.0
15,0.0
17,0.0
19,0.0
21,0.0
23,0.0
25,0.0
27,0.0
29,0.0
31,0.0
33,0.0
35,0.0
37,0.0
1920,12.589170877297905
1921,10.01630575520476
1922,6.924545486719879
1923,5.0006991726486549
1924,5.007090787328006
1925,5.117787112028435
1926,5.043760976863595
1927,6.457738583287511
1928,7.529179710161067
1929,10.12355580549579
1930,8.166008936619678
1931,5.5223257739920899
1932,5.610874756621001
1933,6.123113487811868
1934,5.833313310996519
2,1,10,15, 1, 6, 0.00,60.00,Friday
9,5.293866538198262
11,5.293866538198262
13,5.293866538198262
15,1.1159935258890757
17,0.7065162160575444
19,1.1159935258890757
21,0.7064698719305477
23,1.1159935258890757
25,0.7065162160575444
27,1.1159935258890757
29,0.7064698719305477
31,1.1159935258890757
33,0.7065162160575444
35,1.1159935258890757
37,0.7064698719305477
1920,6.454158769289904
1921,5.9486347529647649
1922,5.336011620575164
1923,5.386308282542792
1924,5.331239320583208
1925,5.246109246736862
1926,5.273225388785202
1927,5.267982310429107
1928,5.4300506064789719
1929,5.928648995977942
1930,5.5357768695290849
1931,5.189200781833603
1932,5.152643074254279
1933,5.238150525085544
1934,5.217253140212456
2,1,10,15, 1, 7, 0.00,60.00,Friday
9,10.587733076396525
11,10.587733076396525
13,10.587733076396525
15,2.2319870517781514
17,1.4130324321150889
19,2.2319870517781514
21,1.4129397438610954
23,2.2319870517781514
25,1.4130324321150889
27,2.2319870517781514
29,1.4129397438610954
31,2.2319870517781514
33,1.4130324321150889
35,2.2319870517781514
37,1.4129397438610954
1920,5.142495193792946
1921,5.0113647368875748
1922,5.027007596803581
1923,5.698006533480125
1924,5.354328016373334
1925,5.344923418348098
1926,5.467527012610366
1927,5.0144563399723129
1928,5.075709450124954
1929,5.724496826987578
1930,5.005727178075567
1931,5.085125619349893
1932,5.15716419995254
1933,5.04370034997977
1934,5.061590697910833
2,1,10,15, 1, 8, 0.00,60.00,Friday
9,50.29173211288349
11,50.29173211288349
13,50.29173211288349
15,10.601938495946215
17,6.7119040525466719
19,10.601938495946215
21,6.711463783340204
23,10.601938495946215
25,6.7119040525466719
27,10.601938495946215
29,6.711463783340204
31,10.601938495946215
33,6.7119040525466719
35,10.601938495946215
37,6.711463783340204
1920,11.78167384454712
1921,6.3549624115773188
1922,5.4093319505641139
1923,5.156017495135913
1924,9.450739904709275
1925,5.2007496806288959
1926,5.099925816733031
1927,5.611218911765209
1928,12.460168127317206
1929,6.162248385227329
1930,6.205373977446679
1931,5.234435696064639
1932,7.229465194614025
1933,5.761384153045657
1934,5.300562108373462
2,1,10,15, 1, 9, 0.00,60.00,Friday
9,50.29173211288349
11,50.29173211288349
13,50.29173211288349
15,10.601938495946215
17,6.7119040525466719
19,10.601938495946215
21,6.711463783340204
23,10.601938495946215
25,6.7119040525466719
27,10.601938495946215
29,6.711463783340204
31,10.601938495946215
33,6.7119040525466719
35,10.601938495946215
37,6.711463783340204
1920,8.156611362219032
1921,6.227176751456298
1922,5.644589813875723
1923,5.2333736890351949
1924,9.910404940383542
1925,6.004866189745279
1926,5.300474214104557
1927,5.881260956318353
1928,10.595345860498674
1929,7.017968801217509
1930,6.277849872509269
1931,5.583393023523082
1932,8.760026043129962
1933,6.598068618179269
1934,5.649012171246436
2,1,10,15, 1,10, 0.00,60.00,Friday
9,51.652426635444069
11,51.652426635444069
13,51.652426635444069
15,10.888784842927822
17,6.893501517906446
19,10.888784842927822
21,6.89304933676391
23,10.888784842927822
25,6.893501517906446
27,10.888784842927822
29,6.89304933676391
31,10.888784842927822
33,0.0
35,10.888784842927822
37,6.89304933676391
1920,11.224954749879544
1921,7.369229279443675
1922,6.670188331508908
1923,6.164762520687202
1924,16.810226642982678
1925,12.581138007035932
1926,6.3671963470184329
1927,7.18958718595709
1928,16.306810209099358
1929,13.54611146491478
1930,8.19448851340286
1931,6.750332978399807
1932,10.1529075097406
1933,13.60203985112737
1934,6.975184722652375
2,1,10,15, 1,11, 0.00,60.00,Friday
9,50.29173211288349
11,50.29173211288349
13,50.29173211288349
15,10.601938495946215
17,6.7119040525466719
19,10.601938495946215
21,6.711463783340204
23,10.601938495946215
25,6.7119040525466719
27,10.601938495946215
29,6.711463783340204
31,10.601938495946215
33,6.7119040525466719
35,10.601938495946215
37,6.711463783340204
1920,8.30277211779365
1921,6.5502251205867
1922,6.328168305607147
1923,6.1376330388334809
1924,10.075673753843026
1925,11.062589291992327
1926,6.293053177331967
1927,6.566826541061649
1928,10.22556256063254
1929,12.49754579231575
1930,7.122832567988422
1931,6.3311377750931
1932,8.430514814437828
1933,12.41607021258397
1934,6.484984734174638
2,1,10,15, 1,12, 0.00,60.00,Friday
9,27.185487702865307
11,27.185487702865307
13,27.185487702865307
15,5.730939391014644
17,3.6281586936349727
19,5.730939391014644
21,3.6279207035599527
23,5.730939391014644
25,3.6281586936349727
27,5.730939391014644
29,3.6279207035599527
31,5.730939391014644
33,0.0
35,5.730939391014644
37,3.6279207035599527
1920,12.541691538336016
1921,7.275328711519866
1922,7.313496106265426
1923,7.624742075508041
1924,11.841843827673044
1925,19.694403416499524
1926,8.08411325604529
1927,7.986287151003306
1928,12.82082614211054
1929,19.06412601996632
1930,9.272933204371038
1931,7.6167259903662158
1932,8.468127802425594
1933,20.265113971888764
1934,8.093082878533237
2,1,10,15, 1,13, 0.00,60.00,Friday
9,50.29173211288349
11,50.29173211288349
13,50.29173211288349
15,10.601938495946215
17,6.7119040525466719
19,10.601938495946215
21,6.711463783340204
23,10.601938495946215
25,6.7119040525466719
27,10.601938495946215
29,6.711463783340204
31,10.601938495946215
33,6.7119040525466719
35,10.601938495946215
37,6.711463783340204
1920,9.139885269388158
1921,6.956207485028483
1922,7.171530526902255
1923,7.393668616500936
1924,9.284881610690983
1925,16.852604429296695
1926,7.728552843558719
1927,7.454698030190087
1928,9.814941005818563
1929,17.438707582248794
1930,8.18922251717085
1931,7.229447794919508
1932,7.585825110744563
1933,18.084804891218487
1934,7.558146662027224
2,1,10,15, 1,14, 0.00,60.00,Friday
9,51.652426635444069
11,51.652426635444069
13,51.652426635444069
15,10.888784842927822
17,6.893501517906446
19,10.888784842927822
21,6.89304933676391
23,10.888784842927822
25,6.893501517906446
27,10.888784842927822
29,6.89304933676391
31,10.888784842927822
33,0.0
35,10.888784842927822
37,6.89304933676391
1920,6.7018263448481509
1921,6.089936856732417
1922,6.2636233775775
1923,6.364471759533681
1924,6.97054814006403
1925,14.028386374488248
1926,7.164814444773678
1927,6.319209630267871
1928,7.184112840945592
1929,16.20569513448087
1930,7.109715510919412
1931,6.214944724752134
1932,8.46319026110757
1933,15.705475997633238
1934,6.983074630313915
2,1,10,15, 1,15, 0.00,60.00,Friday
9,50.29173211288349
11,50.29173211288349
13,50.29173211288349
15,10.601938495946215
17,6.7119040525466719
19,10.601938495946215
21,6.711463783340204
23,10.601938495946215
25,6.7119040525466719
27,10.601938495946215
29,6.711463783340204
31,10.601938495946215
33,6.7119040525466719
35,10.601938495946215
37,6.711463783340204
1920,11.806090357104287
1921,8.25917986687937
1922,8.872664169169758
1923,9.643735199978423
1924,11.9052078648023
1925,19.77145523337484
1926,16.918735429477306
1927,9.192993961973486
1928,12.36217711585791
1929,19.59943885563911
1930,15.345513115429002
1931,9.05434851787814
1932,7.522058493021151
1933,19.87426274551208
1934,16.41260338378947
2,1,10,15, 1,16, 0.00,60.00,Friday
9,50.29173211288349
11,50.29173211288349
13,50.29173211288349
15,10.601938495946215
17,6.7119040525466719
19,10.601938495946215
21,6.711463783340204
23,10.601938495946215
25,6.7119040525466719
27,10.601938495946215
29,6.711463783340204
31,10.601938495946215
33,6.7119040525466719
35,10.601938495946215
37,6.711463783340204
1920,7.667910091725926
1921,6.57241621946697
1922,6.960331743944873
1923,6.739394928058419
1924,7.14515125010594
1925,13.608400997503026
1926,11.696021805974255
1927,6.935865555891351
1928,7.559067978647721
1929,16.551130614700886
1930,11.735816756327857
1931,6.625945626297344
1932,7.338779544949449
1933,14.296335131712049
1934,11.974736534322503
2,1,10,15, 1,17, 0.00,60.00,Friday
9,15.881599614594786
11,15.881599614594786
13,15.881599614594786
15,3.347980577667226
17,2.1195486481726335
19,3.347980577667226
21,2.119409615791643
23,3.347980577667226
25,2.1195486481726335
27,3.347980577667226
29,2.119409615791643
31,3.347980577667226
33,2.1195486481726335
35,3.347980577667226
37,2.119409615791643
1920,8.635714384388225
1921,6.390298103730683
1922,6.566890484285068
1923,6.838405545768616
1924,7.506069873807455
1925,10.644191970949564
1926,12.967999919081448
1927,7.4332433370887929
1928,8.343407938516395
1929,14.853604174996198
1930,13.261170624728307
1931,6.823271616658533
1932,7.028932649898927
1933,10.814665057312011
1934,13.013760978533517
2,1,10,15, 1,18, 0.00,60.00,Friday
9,5.293866538198262
11,5.293866538198262
13,5.293866538198262
15,1.1159935258890757
17,0.7065162160575444
19,1.1159935258890757
21,0.7064698719305477
23,1.1159935258890757
25,0.7065162160575444
27,1.1159935258890757
29,0.7064698719305477
31,1.1159935258890757
33,0.7065162160575444
35,1.1159935258890757
37,0.7064698719305477
1920,9.920365795427891
1921,7.039060512799921
1922,7.306679404740741
1923,7.909660848314149
1924,8.862304293909946
1925,11.963338510442775
1926,15.720702302193877
1927,8.34914251165307
1928,10.259405928880307
1929,14.891636195177199
1930,16.110920877817376
1931,7.70638324410488
1932,6.5062308513275159
1933,11.893037885844193
1934,15.621838884899518
2,1,10,15, 1,19, 0.00,60.00,Friday
9,5.293866538198262
11,5.293866538198262
13,5.293866538198262
15,1.1159935258890757
17,0.7065162160575444
19,1.1159935258890757
21,0.7064698719305477
23,1.1159935258890757
25,0.7065162160575444
27,1.1159935258890757
29,0.7064698719305477
31,1.1159935258890757
33,0.7065162160575444
35,1.1159935258890757
37,0.7064698719305477
1920,6.956736526010661
1921,5.942377755711218
1922,5.97478644530032
1923,6.018271920745012
1924,6.360662848904558
1925,7.3757324615185
1926,7.770858592816722
1927,6.263622720970107
1928,7.039279041462803
1929,8.7008996721991
1930,8.31522411527685
1931,5.9940870369981928
1932,6.211843131271164
1933,7.403387833878358
1934,7.784675533226694
2,1,10,15, 1,20, 0.00,60.00,Friday
9,5.293866538198262
11,5.293866538198262
13,5.293866538198262
15,1.1159935258890757
17,0.7065162160575444
19,1.1159935258890757
21,0.7064698719305477
23,1.1159935258890757
25,0.7065162160575444
27,1.1159935258890757
29,0.7064698719305477
31,1.1159935258890757
33,0.7065162160575444
35,1.1159935258890757
37,0.7064698719305477
1920,5.53808573326543
1921,5.241739909780861
1922,5.2096201399869079
1923,5.163863964410467
1924,5.229176542287061
1925,5.391331872867352
1926,5.386755119104262
1927,5.280575909776277
1928,5.494698783570089
1929,5.990724710099933
1930,5.714458448689785
1931,5.186559754883471
1932,6.012312655079495
1933,5.438374522547153
1934,5.4256950172134099
2,1,10,15, 1,21, 0.00,60.00,Friday
9,5.293866538198262
11,5.293866538198262
13,5.293866538198262
15,1.1159935258890757
17,0.7065162160575444
19,1.1159935258890757
21,0.7064698719305477
23,1.1159935258890757
25,0.7065162160575444
27,1.1159935258890757
29,0.7064698719305477
31,1.1159935258890757
33,0.7065162160575444
35,1.1159935258890757
37,0.7064698719305477
1920,5.905901875076563
1921,5.4897306601311659
1922,5.2720485400770829
1923,5.14768968327666
1924,5.318456420772397
1925,5.554578501646408
1926,5.5202948209608639
1927,5.509316200550127
1928,5.7654131918066489
1929,6.281548734439305
1930,5.962489788220867
1931,5.288489948694483
1932,5.80837655302651
1933,5.659392712631539
1934,5.611297918691496
2,1,10,15, 1,22, 0.00,60.00,Friday
9,2.646933269099131
11,2.646933269099131
13,2.646933269099131
15,0.5579967629445378
17,0.3532581080287722
19,0.5579967629445378
21,0.35323493596527386
23,0.5579967629445378
25,0.3532581080287722
27,0.5579967629445378
29,0.35323493596527386
31,0.5579967629445378
33,0.3532581080287722
35,0.5579967629445378
37,0.35323493596527386
1920,8.86572342888377
1921,7.356710343220219
1922,6.500255835110309
1923,5.592663989886963
1924,5.95640847732655
1925,6.731761924426891
1926,6.517763956021478
1927,6.711021776968475
1928,7.810982972147959
1929,10.208349099291775
1930,8.584561943155114
1931,6.083140479581869
1932,6.625934396625588
1933,7.368088307451899
1934,7.073225454359455
2,1,10,15, 1,23, 0.00,60.00,Friday
9,2.646933269099131
11,2.646933269099131
13,2.646933269099131
15,0.5579967629445378
17,0.3532581080287722
19,0.5579967629445378
21,0.35323493596527386
23,0.5579967629445378
25,0.3532581080287722
27,0.5579967629445378
29,0.35323493596527386
31,0.5579967629445378
33,0.3532581080287722
35,0.5579967629445378
37,0.35323493596527386
1920,12.125919241364848
1921,9.620122109773256
1922,7.90949266534614
1923,5.8538169255450189
1924,6.25693562399637
1925,7.259453647625875
1926,6.89997852237217
1927,7.610678848333919
1928,9.295794625023769
1929,13.0083528187213
1930,10.41510610723224
1931,6.700845748689841
1932,7.253759840632218
1933,8.541576261916953
1934,8.016347397464138
2,1,10,15, 1,24, 0.00,60.00,Friday
9,0.0
11,0.0
13,0.0
15,0.0
17,0.0
19,0.0
21,0.0
23,0.0
25,0.0
27,0.0
29,0.0
31,0.0
33,0.0
35,0.0
37,0.0
1920,12.446374594743107
1921,9.882865312400547
1922,7.852098857858138
1923,5.640222641364654
1924,5.95726914770717
1925,6.790269806173697
1926,6.461433825881618
1927,7.505588638603179
1928,9.17290745766158
1929,12.826948822309701
1930,10.210216086589022
1931,6.552272353727029
1932,7.004526421661294
1933,8.198570440063284
1934,7.690584816702589
End of Data
 Number of Records Written=         720
