Program Version,EnergyPlus, Version 9.0.1-bb7ca4f0da, YMD=2021.11.02 23:18
1,5,Environment Title[],Latitude[deg],Longitude[deg],Time Zone[],Elevation[m]
2,8,Day of Simulation[],Month[],Day of Month[],DST Indicator[1=yes 0=no],Hour[],StartMinute[],EndMinute[],DayType
3,5,Cumulative Day of Simulation[],Month[],Day of Month[],DST Indicator[1=yes 0=no],DayType  ! When Daily Meters Requested
4,2,Cumulative Days of Simulation[],Month[]  ! When Monthly Meters Requested
5,1,Cumulative Days of Simulation[] ! When Run Period Meters Requested
6,1,Calendar Year of Simulation[] ! When Annual Meters Requested
40,1,Electricity:Facility [J] !Hourly
1885,1,ElectricityNet:Facility [J] !Hourly
772,1,Gas:Facility [J] !Hourly
End of Data Dictionary
1,RUNPERIOD 1,  32.17,-110.88,  -7.00, 809.00
2,1,10,15, 1, 1, 0.00,60.00,Friday
40,57609639.64985575
772,6791184.0
1885,57609639.64985575
2,1,10,15, 1, 2, 0.00,60.00,Friday
40,57609860.1137362
772,6791184.0
1885,57609860.1137362
2,1,10,15, 1, 3, 0.00,60.00,Friday
40,57609860.1137362
772,6791184.0
1885,57609860.1137362
2,1,10,15, 1, 4, 0.00,60.00,Friday
40,57609860.1137362
772,6791184.0
1885,57609860.1137362
2,1,10,15, 1, 5, 0.00,60.00,Friday
40,57609860.1137362
772,6791184.0
1885,57609860.1137362
2,1,10,15, 1, 6, 0.00,60.00,Friday
40,139009544.7648745
772,6791184.0
1885,139009544.7648745
2,1,10,15, 1, 7, 0.00,60.00,Friday
40,172335771.4700767
772,6791184.0
1885,172335771.47007675
2,1,10,15, 1, 8, 0.00,60.00,Friday
40,320352431.5501245
772,6791184.0
1885,320352431.5501245
2,1,10,15, 1, 9, 0.00,60.00,Friday
40,364051401.47222349
772,6791184.0
1885,364051401.4722234
2,1,10,15, 1,10, 0.00,60.00,Friday
40,304783168.5744853
772,6791184.0
1885,304783168.5744853
2,1,10,15, 1,11, 0.00,60.00,Friday
40,445840530.0008626
772,11221388.427666583
1885,445840530.0008626
2,1,10,15, 1,12, 0.00,60.00,Friday
40,335621717.9854899
772,20463077.577270785
1885,335621717.9854898
2,1,10,15, 1,13, 0.00,60.00,Friday
40,464653371.26110276
772,17648648.638693423
1885,464653371.2611027
2,1,10,15, 1,14, 0.00,60.00,Friday
40,471025204.55910035
772,13622507.400243059
1885,471025204.5591004
2,1,10,15, 1,15, 0.00,60.00,Friday
40,344344095.4207644
772,11043214.74497797
1885,344344095.42076429
2,1,10,15, 1,16, 0.00,60.00,Friday
40,629985613.8698969
772,15577380.752650163
1885,629985613.8698969
2,1,10,15, 1,17, 0.00,60.00,Friday
40,302451315.5175485
772,10977820.389488697
1885,302451315.5175485
2,1,10,15, 1,18, 0.00,60.00,Friday
40,179795563.98173977
772,6791184.0
1885,179795563.98173974
2,1,10,15, 1,19, 0.00,60.00,Friday
40,223576584.003913
772,6791184.0
1885,223576584.00391294
2,1,10,15, 1,20, 0.00,60.00,Friday
40,205037058.41918857
772,6791184.0
1885,205037058.41918854
2,1,10,15, 1,21, 0.00,60.00,Friday
40,145083279.26263667
772,6791184.0
1885,145083279.2626367
2,1,10,15, 1,22, 0.00,60.00,Friday
40,77772390.65670999
772,6791184.0
1885,77772390.65670999
2,1,10,15, 1,23, 0.00,60.00,Friday
40,72442274.24247962
772,6791184.0
1885,72442274.24247962
2,1,10,15, 1,24, 0.00,60.00,Friday
40,57996196.7332391
772,6791184.0
1885,57996196.7332391
End of Data
 Number of Records Written=          72
