Program Version,EnergyPlus, Version 9.0.1-bb7ca4f0da, YMD=2021.11.02 03:30
1,5,Environment Title[],Latitude[deg],Longitude[deg],Time Zone[],Elevation[m]
2,8,Day of Simulation[],Month[],Day of Month[],DST Indicator[1=yes 0=no],Hour[],StartMinute[],EndMinute[],DayType
3,5,Cumulative Day of Simulation[],Month[],Day of Month[],DST Indicator[1=yes 0=no],DayType  ! When Daily Report Variables Requested
4,2,Cumulative Days of Simulation[],Month[]  ! When Monthly Report Variables Requested
5,1,Cumulative Days of Simulation[] ! When Run Period Report Variables Requested
6,1,Calendar Year of Simulation[] ! When Annual Report Variables Requested
9,1,CORE_BOTTOM,Zone People Occupant Count [] !Hourly
11,1,CORE_MID,Zone People Occupant Count [] !Hourly
13,1,CORE_TOP,Zone People Occupant Count [] !Hourly
15,1,PERIMETER_TOP_ZN_3,Zone People Occupant Count [] !Hourly
17,1,PERIMETER_TOP_ZN_2,Zone People Occupant Count [] !Hourly
19,1,PERIMETER_TOP_ZN_1,Zone People Occupant Count [] !Hourly
21,1,PERIMETER_TOP_ZN_4,Zone People Occupant Count [] !Hourly
23,1,PERIMETER_BOT_ZN_3,Zone People Occupant Count [] !Hourly
25,1,PERIMETER_BOT_ZN_2,Zone People Occupant Count [] !Hourly
27,1,PERIMETER_BOT_ZN_1,Zone People Occupant Count [] !Hourly
29,1,PERIMETER_BOT_ZN_4,Zone People Occupant Count [] !Hourly
31,1,PERIMETER_MID_ZN_3,Zone People Occupant Count [] !Hourly
33,1,PERIMETER_MID_ZN_2,Zone People Occupant Count [] !Hourly
35,1,PERIMETER_MID_ZN_1,Zone People Occupant Count [] !Hourly
37,1,PERIMETER_MID_ZN_4,Zone People Occupant Count [] !Hourly
1920,1,CORE_BOTTOM,Zone Thermal Comfort Fanger Model PPD [%] !Hourly
1921,1,CORE_MID,Zone Thermal Comfort Fanger Model PPD [%] !Hourly
1922,1,CORE_TOP,Zone Thermal Comfort Fanger Model PPD [%] !Hourly
1923,1,PERIMETER_TOP_ZN_3,Zone Thermal Comfort Fanger Model PPD [%] !Hourly
1924,1,PERIMETER_TOP_ZN_2,Zone Thermal Comfort Fanger Model PPD [%] !Hourly
1925,1,PERIMETER_TOP_ZN_1,Zone Thermal Comfort Fanger Model PPD [%] !Hourly
1926,1,PERIMETER_TOP_ZN_4,Zone Thermal Comfort Fanger Model PPD [%] !Hourly
1927,1,PERIMETER_BOT_ZN_3,Zone Thermal Comfort Fanger Model PPD [%] !Hourly
1928,1,PERIMETER_BOT_ZN_2,Zone Thermal Comfort Fanger Model PPD [%] !Hourly
1929,1,PERIMETER_BOT_ZN_1,Zone Thermal Comfort Fanger Model PPD [%] !Hourly
1930,1,PERIMETER_BOT_ZN_4,Zone Thermal Comfort Fanger Model PPD [%] !Hourly
1931,1,PERIMETER_MID_ZN_3,Zone Thermal Comfort Fanger Model PPD [%] !Hourly
1932,1,PERIMETER_MID_ZN_2,Zone Thermal Comfort Fanger Model PPD [%] !Hourly
1933,1,PERIMETER_MID_ZN_1,Zone Thermal Comfort Fanger Model PPD [%] !Hourly
1934,1,PERIMETER_MID_ZN_4,Zone Thermal Comfort Fanger Model PPD [%] !Hourly
End of Data Dictionary
1,RUNPERIOD 1,  32.17,-110.88,  -7.00, 809.00
2,1,10,15, 1, 1, 0.00,60.00,Friday
9,0.0
11,0.0
13,0.0
15,0.0
17,0.0
19,0.0
21,0.0
23,0.0
25,0.0
27,0.0
29,0.0
31,0.0
33,0.0
35,0.0
37,0.0
1920,8.220759848890067
1921,6.756689157458237
1922,5.571593555893135
1923,5.009873546504468
1924,5.001218159218555
1925,5.11164542186862
1926,5.050949337008238
1927,5.5900708221253529
1928,6.383784558203641
1929,8.974663527608902
1930,6.956007924088948
1931,5.150672519361007
1932,5.549928782683281
1933,5.699540699939727
1934,5.480347519013155
2,1,10,15, 1, 2, 0.00,60.00,Friday
9,0.0
11,0.0
13,0.0
15,0.0
17,0.0
19,0.0
21,0.0
23,0.0
25,0.0
27,0.0
29,0.0
31,0.0
33,0.0
35,0.0
37,0.0
1920,8.278276434406648
1921,6.814552119887106
1922,5.519098480218297
1923,5.020122246262194
1924,5.001529613205077
1925,5.068987040237171
1926,5.023232384484349
1927,5.624935395584967
1928,6.418128354317716
1929,8.918745017038374
1930,6.941256128456243
1931,5.162471441905055
1932,5.517972258756053
1933,5.664828164617762
1934,5.448088580994198
2,1,10,15, 1, 3, 0.00,60.00,Friday
9,0.0
11,0.0
13,0.0
15,0.0
17,0.0
19,0.0
21,0.0
23,0.0
25,0.0
27,0.0
29,0.0
31,0.0
33,0.0
35,0.0
37,0.0
1920,8.34181172766005
1921,6.865323875155968
1922,5.475440178971499
1923,5.085048033873996
1924,5.0369939723020329
1925,5.0104860893133609
1926,5.005872855717048
1927,5.504635422873133
1928,6.199386057147717
1929,8.49520130389525
1930,6.660813398239253
1931,5.091405473645568
1932,5.337273825212546
1933,5.458905689971057
1934,5.282314233102085
2,1,10,15, 1, 4, 0.00,60.00,Friday
9,0.0
11,0.0
13,0.0
15,0.0
17,0.0
19,0.0
21,0.0
23,0.0
25,0.0
27,0.0
29,0.0
31,0.0
33,0.0
35,0.0
37,0.0
1920,8.383784121609227
1921,6.888727380726628
1922,5.409618573439971
1923,5.27350671115656
1924,5.195636871367147
1925,5.041882394670348
1926,5.100193303367185
1927,5.326365205121713
1928,5.87152616140106
1929,7.899912720243134
1930,6.2593352592182
1931,5.0170088499707889
1932,5.131425716529328
1933,5.212669063930041
1934,5.100649712316934
2,1,10,15, 1, 5, 0.00,60.00,Friday
9,0.0
11,0.0
13,0.0
15,0.0
17,0.0
19,0.0
21,0.0
23,0.0
25,0.0
27,0.0
29,0.0
31,0.0
33,0.0
35,0.0
37,0.0
1920,8.406981954796822
1921,6.883000574913517
1922,5.32048755905794
1923,5.519571331585314
1924,5.432753847996234
1925,5.178039105344856
1926,5.2917518803798109
1927,5.220424608518203
1928,5.660817903020678
1929,7.451136422294698
1930,5.991031588868516
1931,5.00094804546962
1932,5.030352789225229
1933,5.076701484473797
1934,5.0177823571305739
2,1,10,15, 1, 6, 0.00,60.00,Friday
9,5.293866538198262
11,5.293866538198262
13,5.293866538198262
15,1.1159935258890757
17,0.7065162160575444
19,1.1159935258890757
21,0.7064698719305477
23,1.1159935258890757
25,0.7065162160575444
27,1.1159935258890757
29,0.7064698719305477
31,1.1159935258890757
33,0.7065162160575444
35,1.1159935258890757
37,0.7064698719305477
1920,6.296922257131094
1921,5.577117108002784
1922,5.17404202153602
1923,6.534335803593019
1924,6.400661454266609
1925,5.975929615450188
1926,6.176615359439002
1927,5.061918792905
1928,5.16429465375888
1929,5.60788943049891
1930,5.3032299491636609
1931,5.327819241529146
1932,5.182215528916177
1933,5.132427653696982
1934,5.203278087205966
2,1,10,15, 1, 7, 0.00,60.00,Friday
9,10.587733076396525
11,10.587733076396525
13,10.587733076396525
15,2.2319870517781514
17,1.4130324321150889
19,2.2319870517781514
21,1.4129397438610954
23,2.2319870517781514
25,1.4130324321150889
27,2.2319870517781514
29,1.4129397438610954
31,2.2319870517781514
33,1.4130324321150889
35,2.2319870517781514
37,1.4129397438610954
1920,6.79959816604003
1921,5.071021814449878
1922,5.279614460457324
1923,7.135992400566359
1924,6.389826298338676
1925,6.491087329998945
1926,6.742019913661136
1927,5.037431414644267
1928,5.232292352535263
1929,6.231843562305163
1930,5.0770651510617059
1931,5.547159419514649
1932,5.215297189809928
1933,5.24493379163841
1934,5.37595192332429
2,1,10,15, 1, 8, 0.00,60.00,Friday
9,50.29173211288349
11,50.29173211288349
13,50.29173211288349
15,10.601938495946215
17,6.7119040525466719
19,10.601938495946215
21,6.711463783340204
23,10.601938495946215
25,6.7119040525466719
27,10.601938495946215
29,6.711463783340204
31,10.601938495946215
33,6.7119040525466719
35,10.601938495946215
37,6.711463783340204
1920,8.02162679518782
1921,5.6386999436325599
1922,5.06980661813941
1923,5.891196933875809
1924,7.035792513381122
1925,5.385037043932502
1926,5.693829305085394
1927,5.162997640222447
1928,9.115504696871869
1929,5.599381198581608
1930,5.630730460935041
1931,5.104891713419785
1932,6.756706291444597
1933,5.216984992374802
1934,5.0758836290132269
2,1,10,15, 1, 9, 0.00,60.00,Friday
9,50.29173211288349
11,50.29173211288349
13,50.29173211288349
15,10.601938495946215
17,6.7119040525466719
19,10.601938495946215
21,6.711463783340204
23,10.601938495946215
25,6.7119040525466719
27,10.601938495946215
29,6.711463783340204
31,10.601938495946215
33,6.7119040525466719
35,10.601938495946215
37,6.711463783340204
1920,5.766045164890869
1921,5.276792214603435
1922,5.026802247350129
1923,5.063494392351013
1924,6.6573656379262
1925,5.078563217920873
1926,5.040777520352684
1927,5.110055959143814
1928,7.064734895967374
1929,5.623579725882259
1930,5.2949962866890989
1931,5.017524905730099
1932,8.257557229103938
1933,5.361220471108214
1934,5.028610857793744
2,1,10,15, 1,10, 0.00,60.00,Friday
9,51.652426635444069
11,51.652426635444069
13,51.652426635444069
15,10.888784842927822
17,6.893501517906446
19,10.888784842927822
21,6.89304933676391
23,10.888784842927822
25,6.893501517906446
27,10.888784842927822
29,6.89304933676391
31,10.888784842927822
33,0.0
35,10.888784842927822
37,6.89304933676391
1920,5.21422092950048
1921,5.053023602042278
1922,5.014792858375327
1923,5.004748235385428
1924,6.033408961118295
1925,5.46517364887134
1926,5.009318606963139
1927,5.046962685447404
1928,6.104316394749257
1929,5.779291556824411
1930,5.117474225471622
1931,5.019214424347794
1932,9.62643811113412
1933,5.607556128457996
1934,5.029024690436491
2,1,10,15, 1,11, 0.00,60.00,Friday
9,50.29173211288349
11,50.29173211288349
13,50.29173211288349
15,10.601938495946215
17,6.7119040525466719
19,10.601938495946215
21,6.711463783340204
23,10.601938495946215
25,6.7119040525466719
27,10.601938495946215
29,6.711463783340204
31,10.601938495946215
33,6.7119040525466719
35,10.601938495946215
37,6.711463783340204
1920,5.1527192288885079
1921,5.025070457768905
1922,5.012137533703336
1923,5.007615199740333
1924,5.532532592591541
1925,5.901770262387639
1926,5.01649555021537
1927,5.035210058787037
1928,5.643105854922467
1929,7.156681837529921
1930,5.101787560494003
1931,5.015612890411073
1932,7.983380128683609
1933,6.615595418658202
1934,5.025945661778984
2,1,10,15, 1,12, 0.00,60.00,Friday
9,27.185487702865307
11,27.185487702865307
13,27.185487702865307
15,5.730939391014644
17,3.6281586936349727
19,5.730939391014644
21,3.6279207035599527
23,5.730939391014644
25,3.6281586936349727
27,5.730939391014644
29,3.6279207035599527
31,5.730939391014644
33,0.0
35,5.730939391014644
37,3.6279207035599527
1920,5.383005131055948
1921,5.136509189704967
1922,5.136964512338696
1923,5.156692026789801
1924,5.502823959556025
1925,7.030877965553157
1926,5.199896502057126
1927,5.20326837410223
1928,5.700632642499575
1929,11.82762193110262
1930,5.338714606387477
1931,5.155819375514215
1932,8.014456208970359
1933,8.255891461532903
1934,5.196858385810621
2,1,10,15, 1,13, 0.00,60.00,Friday
9,50.29173211288349
11,50.29173211288349
13,50.29173211288349
15,10.601938495946215
17,6.7119040525466719
19,10.601938495946215
21,6.711463783340204
23,10.601938495946215
25,6.7119040525466719
27,10.601938495946215
29,6.711463783340204
31,10.601938495946215
33,6.7119040525466719
35,10.601938495946215
37,6.711463783340204
1920,5.7104030332677839
1921,5.393987512895642
1922,5.4442456434314769
1923,5.511605413642019
1924,5.905869387629892
1925,8.72127362172985
1926,5.60941515092409
1927,5.5204048644216618
1928,6.089557966009568
1929,12.646135851716466
1930,5.731539830535806
1931,5.467127907082535
1932,7.176291616758472
1933,10.260000903060698
1934,5.560062375319004
2,1,10,15, 1,14, 0.00,60.00,Friday
9,51.652426635444069
11,51.652426635444069
13,51.652426635444069
15,10.888784842927822
17,6.893501517906446
19,10.888784842927822
21,6.89304933676391
23,10.888784842927822
25,6.893501517906446
27,10.888784842927822
29,6.89304933676391
31,10.888784842927822
33,0.0
35,10.888784842927822
37,6.89304933676391
1920,5.142028085816428
1921,5.113069733523797
1922,5.1203940287584859
1923,5.126572842186988
1924,5.1821027578430078
1925,9.710250046308948
1926,5.182737973439252
1927,5.120699364605831
1928,5.237133969017402
1929,12.585271535650192
1930,5.197300299722808
1931,5.1218528274397319
1932,7.955728286541429
1933,11.23983730825186
1934,5.156857518420698
2,1,10,15, 1,15, 0.00,60.00,Friday
9,50.29173211288349
11,50.29173211288349
13,50.29173211288349
15,10.601938495946215
17,6.7119040525466719
19,10.601938495946215
21,6.711463783340204
23,10.601938495946215
25,6.7119040525466719
27,10.601938495946215
29,6.711463783340204
31,10.601938495946215
33,6.7119040525466719
35,10.601938495946215
37,6.711463783340204
1920,7.159446682811516
1921,5.901388767486303
1922,6.092477392330163
1923,6.518551773869089
1924,7.276077292499366
1925,11.790017314013137
1926,9.872376419760358
1927,6.434513743380833
1928,7.580491023051674
1929,12.305375331408142
1930,9.144983827084717
1931,6.337467885908256
1932,7.095457796802883
1933,12.055056134192306
1934,9.662460069125175
2,1,10,15, 1,16, 0.00,60.00,Friday
9,50.29173211288349
11,50.29173211288349
13,50.29173211288349
15,10.601938495946215
17,6.7119040525466719
19,10.601938495946215
21,6.711463783340204
23,10.601938495946215
25,6.7119040525466719
27,10.601938495946215
29,6.711463783340204
31,10.601938495946215
33,6.7119040525466719
35,10.601938495946215
37,6.711463783340204
1920,5.871240015290506
1921,5.5298030484115829
1922,5.687950815002267
1923,5.769176842771318
1924,5.955960881125073
1925,8.643365507971304
1926,8.241402065509936
1927,5.739591026512467
1928,6.074185363313124
1929,11.10031837727127
1930,7.755927661739276
1931,5.6894687055735819
1932,6.915387256496729
1933,9.204278325623703
1934,8.097791874373164
2,1,10,15, 1,17, 0.00,60.00,Friday
9,15.881599614594786
11,15.881599614594786
13,15.881599614594786
15,3.347980577667226
17,2.1195486481726335
19,3.347980577667226
21,2.119409615791643
23,3.347980577667226
25,2.1195486481726335
27,3.347980577667226
29,2.119409615791643
31,3.347980577667226
33,2.1195486481726335
35,3.347980577667226
37,2.119409615791643
1920,5.547832551903592
1921,5.216821561909654
1922,5.266423868724632
1923,5.328807941962306
1924,5.44982242548933
1925,6.2338175973189708
1926,7.621141310980548
1927,5.34512393683985
1928,5.607084889192585
1929,11.575836655079165
1930,7.572298491955752
1931,5.277276687401702
1932,6.6849768632125
1933,6.325646125841824
1934,7.4817055571365
2,1,10,15, 1,18, 0.00,60.00,Friday
9,5.293866538198262
11,5.293866538198262
13,5.293866538198262
15,1.1159935258890757
17,0.7065162160575444
19,1.1159935258890757
21,0.7064698719305477
23,1.1159935258890757
25,0.7065162160575444
27,1.1159935258890757
29,0.7064698719305477
31,1.1159935258890757
33,0.7065162160575444
35,1.1159935258890757
37,0.7064698719305477
1920,5.08772085486635
1921,5.050459968708689
1922,5.054248894250044
1923,5.05803437459021
1924,5.066982312022321
1925,5.179708467070381
1926,5.661092370406664
1927,5.059233987406965
1928,5.116800251238419
1929,7.135030162201329
1930,5.818949699092762
1931,5.054285975986166
1932,6.283095564806092
1933,5.177056436724615
1934,5.6230070884732969
2,1,10,15, 1,19, 0.00,60.00,Friday
9,5.293866538198262
11,5.293866538198262
13,5.293866538198262
15,1.1159935258890757
17,0.7065162160575444
19,1.1159935258890757
21,0.7064698719305477
23,1.1159935258890757
25,0.7065162160575444
27,1.1159935258890757
29,0.7064698719305477
31,1.1159935258890757
33,0.7065162160575444
35,1.1159935258890757
37,0.7064698719305477
1920,5.497328820180715
1921,5.047262508043263
1922,5.026654407608828
1923,5.052111912415623
1924,5.154100476328741
1925,5.6503775498495349
1926,5.895351712583448
1927,5.186495131342878
1928,5.677671484528602
1929,8.17615026155835
1930,6.739220198530397
1931,5.070403256506556
1932,5.975030398685263
1933,5.785450469040927
1934,5.964762725858949
2,1,10,15, 1,20, 0.00,60.00,Friday
9,5.293866538198262
11,5.293866538198262
13,5.293866538198262
15,1.1159935258890757
17,0.7065162160575444
19,1.1159935258890757
21,0.7064698719305477
23,1.1159935258890757
25,0.7065162160575444
27,1.1159935258890757
29,0.7064698719305477
31,1.1159935258890757
33,0.7065162160575444
35,1.1159935258890757
37,0.7064698719305477
1920,5.285553194778863
1921,5.352297036692565
1922,5.411133141624319
1923,5.4734638348284199
1924,5.423499326101793
1925,5.38556069587874
1926,5.43329758789483
1927,5.310464693336328
1928,5.324690615155622
1929,5.939962465737952
1930,5.4928430808682029
1931,5.423681881826385
1932,5.664902832001583
1933,5.385247775774315
1934,5.433578310684737
2,1,10,15, 1,21, 0.00,60.00,Friday
9,5.293866538198262
11,5.293866538198262
13,5.293866538198262
15,1.1159935258890757
17,0.7065162160575444
19,1.1159935258890757
21,0.7064698719305477
23,1.1159935258890757
25,0.7065162160575444
27,1.1159935258890757
29,0.7064698719305477
31,1.1159935258890757
33,0.7065162160575444
35,1.1159935258890757
37,0.7064698719305477
1920,5.066218513020715
1921,5.132575020277161
1922,5.242164176429665
1923,5.321773159418579
1924,5.200419797009002
1925,5.085123799182725
1926,5.087625027943524
1927,5.084667962122505
1928,5.059548139023387
1929,5.163068499288737
1930,5.073992577484451
1931,5.196949989888805
1932,5.274379865692571
1933,5.068014160143427
1934,5.0716623354375829
2,1,10,15, 1,22, 0.00,60.00,Friday
9,2.646933269099131
11,2.646933269099131
13,2.646933269099131
15,0.5579967629445378
17,0.3532581080287722
19,0.5579967629445378
21,0.35323493596527386
23,0.5579967629445378
25,0.3532581080287722
27,0.5579967629445378
29,0.35323493596527386
31,0.5579967629445378
33,0.3532581080287722
35,0.5579967629445378
37,0.35323493596527386
1920,6.271207914119091
1921,5.540332900548894
1922,5.199659967009161
1923,5.049782988603115
1924,5.060552088749955
1925,5.258449074488517
1926,5.199991701164076
1927,5.32970462229769
1928,5.813983436146482
1929,7.508407095937652
1930,6.23196327470023
1931,5.106187177444252
1932,5.636979327194787
1933,5.555451191884063
1934,5.425713462540538
2,1,10,15, 1,23, 0.00,60.00,Friday
9,2.646933269099131
11,2.646933269099131
13,2.646933269099131
15,0.5579967629445378
17,0.3532581080287722
19,0.5579967629445378
21,0.35323493596527386
23,0.5579967629445378
25,0.3532581080287722
27,0.5579967629445378
29,0.35323493596527386
31,0.5579967629445378
33,0.3532581080287722
35,0.5579967629445378
37,0.35323493596527386
1920,8.0688243969852
1921,6.629978771982898
1922,5.691159604224478
1923,5.020862988150959
1924,5.095097241365127
1925,5.427242361766342
1926,5.310487918173048
1927,5.7382166403213239
1928,6.611022666354771
1929,9.425374265491394
1930,7.299686057679845
1931,5.280930209455538
1932,5.9674235492787519
1933,6.095703475214748
1934,5.829424208515451
2,1,10,15, 1,24, 0.00,60.00,Friday
9,0.0
11,0.0
13,0.0
15,0.0
17,0.0
19,0.0
21,0.0
23,0.0
25,0.0
27,0.0
29,0.0
31,0.0
33,0.0
35,0.0
37,0.0
1920,8.266492322099533
1921,6.784072650002088
1922,5.678924422655636
1923,5.005293868579597
1924,5.037604423287189
1925,5.259201910437056
1926,5.165413203151506
1927,5.689362112738148
1928,6.544578329308602
1929,9.308798488902993
1930,7.187801728943005
1931,5.229644562319048
1932,5.765978259106727
1933,5.930667177989489
1934,5.677365477657382
End of Data
 Number of Records Written=         720
