Program Version,EnergyPlus, Version 9.0.1-bb7ca4f0da, YMD=2021.11.05 05:48
1,5,Environment Title[],Latitude[deg],Longitude[deg],Time Zone[],Elevation[m]
2,8,Day of Simulation[],Month[],Day of Month[],DST Indicator[1=yes 0=no],Hour[],StartMinute[],EndMinute[],DayType
3,5,Cumulative Day of Simulation[],Month[],Day of Month[],DST Indicator[1=yes 0=no],DayType  ! When Daily Report Variables Requested
4,2,Cumulative Days of Simulation[],Month[]  ! When Monthly Report Variables Requested
5,1,Cumulative Days of Simulation[] ! When Run Period Report Variables Requested
6,1,Calendar Year of Simulation[] ! When Annual Report Variables Requested
9,1,CORE_BOTTOM,Zone People Occupant Count [] !Hourly
11,1,CORE_MID,Zone People Occupant Count [] !Hourly
13,1,CORE_TOP,Zone People Occupant Count [] !Hourly
15,1,PERIMETER_TOP_ZN_3,Zone People Occupant Count [] !Hourly
17,1,PERIMETER_TOP_ZN_2,Zone People Occupant Count [] !Hourly
19,1,PERIMETER_TOP_ZN_1,Zone People Occupant Count [] !Hourly
21,1,PERIMETER_TOP_ZN_4,Zone People Occupant Count [] !Hourly
23,1,PERIMETER_BOT_ZN_3,Zone People Occupant Count [] !Hourly
25,1,PERIMETER_BOT_ZN_2,Zone People Occupant Count [] !Hourly
27,1,PERIMETER_BOT_ZN_1,Zone People Occupant Count [] !Hourly
29,1,PERIMETER_BOT_ZN_4,Zone People Occupant Count [] !Hourly
31,1,PERIMETER_MID_ZN_3,Zone People Occupant Count [] !Hourly
33,1,PERIMETER_MID_ZN_2,Zone People Occupant Count [] !Hourly
35,1,PERIMETER_MID_ZN_1,Zone People Occupant Count [] !Hourly
37,1,PERIMETER_MID_ZN_4,Zone People Occupant Count [] !Hourly
1920,1,CORE_BOTTOM,Zone Thermal Comfort Fanger Model PPD [%] !Hourly
1921,1,CORE_MID,Zone Thermal Comfort Fanger Model PPD [%] !Hourly
1922,1,CORE_TOP,Zone Thermal Comfort Fanger Model PPD [%] !Hourly
1923,1,PERIMETER_TOP_ZN_3,Zone Thermal Comfort Fanger Model PPD [%] !Hourly
1924,1,PERIMETER_TOP_ZN_2,Zone Thermal Comfort Fanger Model PPD [%] !Hourly
1925,1,PERIMETER_TOP_ZN_1,Zone Thermal Comfort Fanger Model PPD [%] !Hourly
1926,1,PERIMETER_TOP_ZN_4,Zone Thermal Comfort Fanger Model PPD [%] !Hourly
1927,1,PERIMETER_BOT_ZN_3,Zone Thermal Comfort Fanger Model PPD [%] !Hourly
1928,1,PERIMETER_BOT_ZN_2,Zone Thermal Comfort Fanger Model PPD [%] !Hourly
1929,1,PERIMETER_BOT_ZN_1,Zone Thermal Comfort Fanger Model PPD [%] !Hourly
1930,1,PERIMETER_BOT_ZN_4,Zone Thermal Comfort Fanger Model PPD [%] !Hourly
1931,1,PERIMETER_MID_ZN_3,Zone Thermal Comfort Fanger Model PPD [%] !Hourly
1932,1,PERIMETER_MID_ZN_2,Zone Thermal Comfort Fanger Model PPD [%] !Hourly
1933,1,PERIMETER_MID_ZN_1,Zone Thermal Comfort Fanger Model PPD [%] !Hourly
1934,1,PERIMETER_MID_ZN_4,Zone Thermal Comfort Fanger Model PPD [%] !Hourly
End of Data Dictionary
1,RUNPERIOD 1,  32.17,-110.88,  -7.00, 809.00
2,1,10,15, 1, 1, 0.00,60.00,Friday
9,0.0
11,0.0
13,0.0
15,0.0
17,0.0
19,0.0
21,0.0
23,0.0
25,0.0
27,0.0
29,0.0
31,0.0
33,0.0
35,0.0
37,0.0
1920,12.416568149039508
1921,10.287710195715528
1922,8.108209022327558
1923,5.649524162004812
1924,5.87792375114244
1925,6.479944814331691
1926,6.295800944798901
1927,7.50002102251933
1928,9.049529189082407
1929,12.483717666210206
1930,10.06775469380746
1931,6.564443319029427
1932,6.777252233289121
1933,7.838421467898627
1934,7.529176914905783
2,1,10,15, 1, 2, 0.00,60.00,Friday
9,0.0
11,0.0
13,0.0
15,0.0
17,0.0
19,0.0
21,0.0
23,0.0
25,0.0
27,0.0
29,0.0
31,0.0
33,0.0
35,0.0
37,0.0
1920,12.463452704737242
1921,10.355605371538973
1922,7.919323824639868
1923,5.557194135202129
1924,5.748064991144614
1925,6.261622931853805
1926,6.077161590396375
1927,7.52999004950006
1928,9.021364185681563
1929,12.347444726713024
1930,9.974544417762387
1931,6.565322998542489
1932,6.750331161920613
1933,7.718026419159251
1934,7.394282245141807
2,1,10,15, 1, 3, 0.00,60.00,Friday
9,0.0
11,0.0
13,0.0
15,0.0
17,0.0
19,0.0
21,0.0
23,0.0
25,0.0
27,0.0
29,0.0
31,0.0
33,0.0
35,0.0
37,0.0
1920,12.531974025453089
1921,10.415702679056365
1922,7.762824322472819
1923,5.3456391850041629
1924,5.473336774036902
1925,5.867460101441163
1926,5.706508740774315
1927,7.265967417556126
1928,8.634238730858068
1929,11.721391368445488
1930,9.479683425408508
1931,6.303909087555463
1932,6.434154274087892
1933,7.259533577642425
1934,6.952051698244344
2,1,10,15, 1, 4, 0.00,60.00,Friday
9,0.0
11,0.0
13,0.0
15,0.0
17,0.0
19,0.0
21,0.0
23,0.0
25,0.0
27,0.0
29,0.0
31,0.0
33,0.0
35,0.0
37,0.0
1920,12.572577041972912
1921,10.429995832167018
1922,7.555738081202058
1923,5.122255378406007
1924,5.182274396711058
1925,5.432460705238545
1926,5.316878209190371
1927,6.853442270140779
1928,8.025771720575138
1929,10.813786924486914
1930,8.798622954962254
1931,5.90792832336403
1932,5.976935233062373
1933,6.6320065087203139
1934,6.365366480727381
2,1,10,15, 1, 5, 0.00,60.00,Friday
9,0.0
11,0.0
13,0.0
15,0.0
17,0.0
19,0.0
21,0.0
23,0.0
25,0.0
27,0.0
29,0.0
31,0.0
33,0.0
35,0.0
37,0.0
1920,12.586535883205514
1921,10.394543330391718
1922,7.283608383252182
1923,5.016182601077415
1924,5.033705020232451
1925,5.164266771280476
1926,5.0949382964339569
1927,6.574765130067983
1928,7.597696984714811
1929,10.1395386671429
1930,8.289899701913392
1931,5.63673450153847
1932,5.662243832587684
1933,6.184647527581599
1934,5.95712669515009
2,1,10,15, 1, 6, 0.00,60.00,Friday
9,5.293866538198262
11,5.293866538198262
13,5.293866538198262
15,1.1159935258890757
17,0.7065162160575444
19,1.1159935258890757
21,0.7064698719305477
23,1.1159935258890757
25,0.7065162160575444
27,1.1159935258890757
29,0.7064698719305477
31,1.1159935258890757
33,0.7065162160575444
35,1.1159935258890757
37,0.7064698719305477
1920,6.381654044039458
1921,6.054157161318822
1922,5.6931674797239399
1923,6.033759249451651
1924,6.021249247893789
1925,5.903985502546507
1926,5.975078205611266
1927,5.567946965754139
1928,5.675697046504221
1929,5.95447567826213
1930,5.741375640950909
1931,5.704358311432614
1932,5.168048390960254
1933,5.680206062747459
1934,5.732153692270432
2,1,10,15, 1, 7, 0.00,60.00,Friday
9,10.587733076396525
11,10.587733076396525
13,10.587733076396525
15,2.2319870517781514
17,1.4130324321150889
19,2.2319870517781514
21,1.4129397438610954
23,2.2319870517781514
25,1.4130324321150889
27,2.2319870517781514
29,1.4129397438610954
31,2.2319870517781514
33,1.4130324321150889
35,2.2319870517781514
37,1.4129397438610954
1920,5.132392369701321
1921,5.418563914059966
1922,5.800594647769444
1923,6.509140637479834
1924,6.101784127350943
1925,6.354400478722181
1926,6.421975084291593
1927,5.672681023692038
1928,5.35221695254472
1929,5.915194184417007
1930,5.469323222637944
1931,6.040895030002138
1932,5.132352929283395
1933,5.909476101686789
1934,5.984101465613506
2,1,10,15, 1, 8, 0.00,60.00,Friday
9,50.29173211288349
11,50.29173211288349
13,50.29173211288349
15,10.601938495946215
17,6.7119040525466719
19,10.601938495946215
21,6.711463783340204
23,10.601938495946215
25,6.7119040525466719
27,10.601938495946215
29,6.711463783340204
31,10.601938495946215
33,6.7119040525466719
35,10.601938495946215
37,6.711463783340204
1920,7.3120255828672
1921,5.720357397436686
1922,5.255200433410157
1923,5.418373564264577
1924,7.307448480705567
1925,5.324479658302917
1926,5.3675537043562289
1927,5.3590974108990869
1928,8.385298073004967
1929,5.884614711606328
1930,5.673193288020464
1931,5.2429959250346089
1932,7.139799431276612
1933,5.464476840797713
1934,5.248907497197588
2,1,10,15, 1, 9, 0.00,60.00,Friday
9,50.29173211288349
11,50.29173211288349
13,50.29173211288349
15,10.601938495946215
17,6.7119040525466719
19,10.601938495946215
21,6.711463783340204
23,10.601938495946215
25,6.7119040525466719
27,10.601938495946215
29,6.711463783340204
31,10.601938495946215
33,6.7119040525466719
35,10.601938495946215
37,6.711463783340204
1920,7.865511261024729
1921,7.089491735173875
1922,6.016217718656722
1923,5.190934087973315
1924,9.999530584430909
1925,6.80570277729836
1926,5.247390401517443
1927,6.549174852494811
1928,10.278346757938506
1929,8.188641068346591
1930,7.131554702670918
1931,5.877481948732519
1932,8.721441055328091
1933,7.646672773332362
1934,6.005045425567569
2,1,10,15, 1,10, 0.00,60.00,Friday
9,51.652426635444069
11,51.652426635444069
13,51.652426635444069
15,10.888784842927822
17,6.893501517906446
19,10.888784842927822
21,6.89304933676391
23,10.888784842927822
25,6.893501517906446
27,10.888784842927822
29,6.89304933676391
31,10.888784842927822
33,0.0
35,10.888784842927822
37,6.89304933676391
1920,6.582307260842366
1921,6.1495590376229078
1922,5.907709380822219
1923,5.617603075097091
1924,8.50381416883806
1925,7.3232779166408978
1926,5.698094724647454
1927,6.08346710107261
1928,8.453373803352214
1929,7.736065355737729
1930,6.361982984028579
1931,5.891211919649827
1932,10.129908579605648
1933,7.552366987811993
1934,5.986681036750556
2,1,10,15, 1,11, 0.00,60.00,Friday
9,50.29173211288349
11,50.29173211288349
13,50.29173211288349
15,10.601938495946215
17,6.7119040525466719
19,10.601938495946215
21,6.711463783340204
23,10.601938495946215
25,6.7119040525466719
27,10.601938495946215
29,6.711463783340204
31,10.601938495946215
33,6.7119040525466719
35,10.601938495946215
37,6.711463783340204
1920,5.985078203375892
1921,5.593123899052823
1922,5.569569298797316
1923,5.51771896983593
1924,6.883756948863159
1925,7.438592811338434
1926,5.583044005938102
1927,5.629569678879413
1928,6.964853119566847
1929,8.743545897895685
1930,5.836345221073498
1931,5.53810214375432
1932,8.421240279791979
1933,8.249429711992379
1934,5.59984476126516
2,1,10,15, 1,12, 0.00,60.00,Friday
9,27.185487702865307
11,27.185487702865307
13,27.185487702865307
15,5.730939391014644
17,3.6281586936349727
19,5.730939391014644
21,3.6279207035599527
23,5.730939391014644
25,3.6281586936349727
27,5.730939391014644
29,3.6279207035599527
31,5.730939391014644
33,0.0
35,5.730939391014644
37,3.6279207035599527
1920,5.8502300317861188
1921,5.432000787953811
1922,5.460767796857596
1923,5.475886597703915
1924,6.045732679863884
1925,8.573546640650113
1926,5.545267558403485
1927,5.534757785931774
1928,6.257969312342264
1929,13.87008058410378
1930,5.740184933917182
1931,5.448598602242025
1932,8.42849238129734
1933,10.086639666405818
1934,5.5158206422443289
2,1,10,15, 1,13, 0.00,60.00,Friday
9,50.29173211288349
11,50.29173211288349
13,50.29173211288349
15,10.601938495946215
17,6.7119040525466719
19,10.601938495946215
21,6.711463783340204
23,10.601938495946215
25,6.7119040525466719
27,10.601938495946215
29,6.711463783340204
31,10.601938495946215
33,6.7119040525466719
35,10.601938495946215
37,6.711463783340204
1920,6.68457190613439
1921,6.149152385570855
1922,6.261796937706396
1923,6.340759705399125
1924,6.968730990765555
1925,10.601864340612928
1926,6.492623764725356
1927,6.328701014334129
1928,7.182726466531008
1929,14.657601425666066
1930,6.654913111286206
1931,6.241175727810014
1932,7.515812343889647
1933,12.307233024062584
1934,6.390963873065338
2,1,10,15, 1,14, 0.00,60.00,Friday
9,51.652426635444069
11,51.652426635444069
13,51.652426635444069
15,10.888784842927822
17,6.893501517906446
19,10.888784842927822
21,6.89304933676391
23,10.888784842927822
25,6.893501517906446
27,10.888784842927822
29,6.89304933676391
31,10.888784842927822
33,0.0
35,10.888784842927822
37,6.89304933676391
1920,8.60420211142885
1921,7.833244636998569
1922,8.187762722510728
1923,8.454495236591767
1924,9.270970629392439
1925,13.549445755266307
1926,9.794827259625324
1927,8.24118549490278
1928,9.380679809786367
1929,14.706278518663595
1930,9.489103249337786
1931,8.17515484323445
1932,8.325218147153409
1933,13.659374660652939
1934,9.49709050689598
2,1,10,15, 1,15, 0.00,60.00,Friday
9,50.29173211288349
11,50.29173211288349
13,50.29173211288349
15,10.601938495946215
17,6.7119040525466719
19,10.601938495946215
21,6.711463783340204
23,10.601938495946215
25,6.7119040525466719
27,10.601938495946215
29,6.711463783340204
31,10.601938495946215
33,6.7119040525466719
35,10.601938495946215
37,6.711463783340204
1920,8.077728774347096
1921,7.543991493036285
1922,7.907930740805942
1923,8.09369418987717
1924,8.639226281023339
1925,12.262745367610286
1926,11.100996795347703
1927,7.849450881607548
1928,8.692924724995722
1929,14.716171311252419
1930,10.23174734428992
1931,7.785197460066509
1932,7.514721542396171
1933,12.816302072468837
1934,10.673656833632686
2,1,10,15, 1,16, 0.00,60.00,Friday
9,50.29173211288349
11,50.29173211288349
13,50.29173211288349
15,10.601938495946215
17,6.7119040525466719
19,10.601938495946215
21,6.711463783340204
23,10.601938495946215
25,6.7119040525466719
27,10.601938495946215
29,6.711463783340204
31,10.601938495946215
33,6.7119040525466719
35,10.601938495946215
37,6.711463783340204
1920,9.107453097764797
1921,8.436874708216058
1922,8.859622433886898
1923,9.07006907084637
1924,9.574391166751307
1925,12.305217322153825
1926,14.185960933190179
1927,8.75226017223279
1928,9.614266388146829
1929,13.094637861844669
1930,12.828913172773803
1931,8.692150156060953
1932,7.272015809663934
1933,12.007958862428565
1934,13.64032652178993
2,1,10,15, 1,17, 0.00,60.00,Friday
9,15.881599614594786
11,15.881599614594786
13,15.881599614594786
15,3.347980577667226
17,2.1195486481726335
19,3.347980577667226
21,2.119409615791643
23,3.347980577667226
25,2.1195486481726335
27,3.347980577667226
29,2.119409615791643
31,3.347980577667226
33,2.1195486481726335
35,3.347980577667226
37,2.119409615791643
1920,8.883083349447036
1921,7.973314289991568
1922,8.452073525190445
1923,8.625756682968218
1924,8.979637649004687
1925,10.424718047177697
1926,13.642287189390596
1927,8.479492277272648
1928,9.16237740346115
1929,13.961874182075896
1930,13.137114275598315
1931,8.315052272387142
1932,6.936708733719644
1933,10.081391223249517
1934,13.15289288068233
2,1,10,15, 1,18, 0.00,60.00,Friday
9,5.293866538198262
11,5.293866538198262
13,5.293866538198262
15,1.1159935258890757
17,0.7065162160575444
19,1.1159935258890757
21,0.7064698719305477
23,1.1159935258890757
25,0.7065162160575444
27,1.1159935258890757
29,0.7064698719305477
31,1.1159935258890757
33,0.7065162160575444
35,1.1159935258890757
37,0.7064698719305477
1920,8.878986794717669
1921,7.210332615087398
1922,7.6803027930947869
1923,8.255155144977485
1924,8.907251507300805
1925,9.695006270367856
1926,11.627224954963675
1927,8.17611836857644
1928,9.24374426443751
1929,10.889340427264037
1930,11.723322059163449
1931,7.792172723120011
1932,6.479313631146479
1933,9.476260458276093
1934,11.338808796612538
2,1,10,15, 1,19, 0.00,60.00,Friday
9,5.293866538198262
11,5.293866538198262
13,5.293866538198262
15,1.1159935258890757
17,0.7065162160575444
19,1.1159935258890757
21,0.7064698719305477
23,1.1159935258890757
25,0.7065162160575444
27,1.1159935258890757
29,0.7064698719305477
31,1.1159935258890757
33,0.7065162160575444
35,1.1159935258890757
37,0.7064698719305477
1920,8.605873610928463
1921,6.661598153001897
1922,6.926844205259177
1923,7.328266550722195
1924,8.158040679509922
1925,9.660087626109883
1926,10.183819962807286
1927,7.512033419923912
1928,9.181860076043814
1929,10.926822331888298
1930,10.598690293096782
1931,7.026669926206992
1932,6.17579948101757
1933,9.530685752287186
1934,10.085816742831823
2,1,10,15, 1,20, 0.00,60.00,Friday
9,5.293866538198262
11,5.293866538198262
13,5.293866538198262
15,1.1159935258890757
17,0.7065162160575444
19,1.1159935258890757
21,0.7064698719305477
23,1.1159935258890757
25,0.7065162160575444
27,1.1159935258890757
29,0.7064698719305477
31,1.1159935258890757
33,0.7065162160575444
35,1.1159935258890757
37,0.7064698719305477
1920,6.432421299658029
1921,5.800528918243406
1922,5.797597937120528
1923,5.748470003034346
1924,5.9657065361247849
1925,6.453907108590286
1926,6.5781391288921429
1927,5.96213111870117
1928,6.526266210563027
1929,7.418037177030075
1930,7.035559272474271
1931,5.737972808282524
1932,5.993985812175872
1933,6.487317205492562
1934,6.596521977626597
2,1,10,15, 1,21, 0.00,60.00,Friday
9,5.293866538198262
11,5.293866538198262
13,5.293866538198262
15,1.1159935258890757
17,0.7065162160575444
19,1.1159935258890757
21,0.7064698719305477
23,1.1159935258890757
25,0.7065162160575444
27,1.1159935258890757
29,0.7064698719305477
31,1.1159935258890757
33,0.7065162160575444
35,1.1159935258890757
37,0.7064698719305477
1920,6.705835364551159
1921,5.7857847068028109
1922,5.602922366522627
1923,5.4409186096300419
1924,5.655530956287151
1925,6.121827493008522
1926,6.136277002258434
1927,5.902965424074459
1928,6.704236489830606
1929,8.5137727359907
1930,7.450458627818041
1931,5.557856725534776
1932,5.814596106165607
1933,6.373128814256752
1934,6.3563542703405349
2,1,10,15, 1,22, 0.00,60.00,Friday
9,2.646933269099131
11,2.646933269099131
13,2.646933269099131
15,0.5579967629445378
17,0.3532581080287722
19,0.5579967629445378
21,0.35323493596527386
23,0.5579967629445378
25,0.3532581080287722
27,0.5579967629445378
29,0.35323493596527386
31,0.5579967629445378
33,0.3532581080287722
35,0.5579967629445378
37,0.35323493596527386
1920,10.012176698564055
1921,8.02667479762691
1922,7.224357493169943
1923,6.017072695416862
1924,6.40904910698158
1925,7.309925426963105
1926,7.199741564039556
1927,7.2217772434404
1928,8.767631049774666
1929,12.20203503267153
1930,10.009680906486631
1931,6.479776445242304
1932,6.806214092055328
1933,8.091257289469198
1934,7.89935955594517
2,1,10,15, 1,23, 0.00,60.00,Friday
9,2.646933269099131
11,2.646933269099131
13,2.646933269099131
15,0.5579967629445378
17,0.3532581080287722
19,0.5579967629445378
21,0.35323493596527386
23,0.5579967629445378
25,0.3532581080287722
27,0.5579967629445378
29,0.35323493596527386
31,0.5579967629445378
33,0.3532581080287722
35,0.5579967629445378
37,0.35323493596527386
1920,12.396652473801682
1921,10.15135996722792
1922,8.600208435899484
1923,6.227756454204801
1924,6.623159697897466
1925,7.557470159060029
1926,7.363790172149713
1927,7.911736312282318
1928,9.651525307701199
1929,13.485584526878592
1930,10.927704768243613
1931,7.0182205743165799
1932,7.35108702041799
1933,8.785380410134155
1934,8.46740138818066
2,1,10,15, 1,24, 0.00,60.00,Friday
9,0.0
11,0.0
13,0.0
15,0.0
17,0.0
19,0.0
21,0.0
23,0.0
25,0.0
27,0.0
29,0.0
31,0.0
33,0.0
35,0.0
37,0.0
1920,12.517941403626948
1921,10.334315632600806
1922,8.432318795047289
1923,5.926666233713095
1924,6.2357789362904489
1925,6.9938813895394988
1926,6.801321775020692
1927,7.717967442842403
1928,9.370635359991362
1929,13.022164996902637
1930,10.520150465120312
1931,6.806817831303586
1932,7.079742382645264
1933,8.322002323099945
1934,8.007021033243682
End of Data
 Number of Records Written=         720
