Program Version,EnergyPlus, Version 9.0.1-bb7ca4f0da, YMD=2021.11.02 03:30
1,5,Environment Title[],Latitude[deg],Longitude[deg],Time Zone[],Elevation[m]
2,8,Day of Simulation[],Month[],Day of Month[],DST Indicator[1=yes 0=no],Hour[],StartMinute[],EndMinute[],DayType
3,5,Cumulative Day of Simulation[],Month[],Day of Month[],DST Indicator[1=yes 0=no],DayType  ! When Daily Meters Requested
4,2,Cumulative Days of Simulation[],Month[]  ! When Monthly Meters Requested
5,1,Cumulative Days of Simulation[] ! When Run Period Meters Requested
6,1,Calendar Year of Simulation[] ! When Annual Meters Requested
40,1,Electricity:Facility [J] !Hourly
1885,1,ElectricityNet:Facility [J] !Hourly
772,1,Gas:Facility [J] !Hourly
End of Data Dictionary
1,RUNPERIOD 1,  32.17,-110.88,  -7.00, 809.00
2,1,10,15, 1, 1, 0.00,60.00,Friday
40,57609639.64985575
772,6791184.0
1885,57609639.64985575
2,1,10,15, 1, 2, 0.00,60.00,Friday
40,57609860.1137362
772,6791184.0
1885,57609860.1137362
2,1,10,15, 1, 3, 0.00,60.00,Friday
40,57609860.1137362
772,6791184.0
1885,57609860.1137362
2,1,10,15, 1, 4, 0.00,60.00,Friday
40,57609860.1137362
772,6791184.0
1885,57609860.1137362
2,1,10,15, 1, 5, 0.00,60.00,Friday
40,57609860.1137362
772,6791184.0
1885,57609860.1137362
2,1,10,15, 1, 6, 0.00,60.00,Friday
40,102674403.95329313
772,6791184.0
1885,102674403.95329315
2,1,10,15, 1, 7, 0.00,60.00,Friday
40,156086523.59961999
772,6791184.0
1885,156086523.59961999
2,1,10,15, 1, 8, 0.00,60.00,Friday
40,326107027.34381839
772,6791184.0
1885,326107027.3438183
2,1,10,15, 1, 9, 0.00,60.00,Friday
40,382420665.09852936
772,6791184.0
1885,382420665.09852936
2,1,10,15, 1,10, 0.00,60.00,Friday
40,391219851.79583027
772,6791184.0
1885,391219851.79583027
2,1,10,15, 1,11, 0.00,60.00,Friday
40,437905175.65656158
772,11220078.589666099
1885,437905175.65656158
2,1,10,15, 1,12, 0.00,60.00,Friday
40,412865104.9823539
772,20465214.91257047
1885,412865104.9823539
2,1,10,15, 1,13, 0.00,60.00,Friday
40,423094676.2260606
772,20347459.361078588
1885,423094676.2260606
2,1,10,15, 1,14, 0.00,60.00,Friday
40,561957524.1721741
772,11063684.128061956
1885,561957524.1721741
2,1,10,15, 1,15, 0.00,60.00,Friday
40,355881007.2699316
772,11055331.688439917
1885,355881007.26993158
2,1,10,15, 1,16, 0.00,60.00,Friday
40,542722012.5286858
772,15576864.702499193
1885,542722012.5286858
2,1,10,15, 1,17, 0.00,60.00,Friday
40,350286017.0995584
772,11029077.995865714
1885,350286017.0995584
2,1,10,15, 1,18, 0.00,60.00,Friday
40,281394883.63738146
772,10912621.44200981
1885,281394883.6373813
2,1,10,15, 1,19, 0.00,60.00,Friday
40,163498027.29079256
772,6791184.0
1885,163498027.29079256
2,1,10,15, 1,20, 0.00,60.00,Friday
40,250405597.27255685
772,6791184.0
1885,250405597.27255679
2,1,10,15, 1,21, 0.00,60.00,Friday
40,142606685.71070225
772,6791184.0
1885,142606685.7107022
2,1,10,15, 1,22, 0.00,60.00,Friday
40,77772390.65670999
772,6791184.0
1885,77772390.65670999
2,1,10,15, 1,23, 0.00,60.00,Friday
40,72442274.24247962
772,6791184.0
1885,72442274.24247962
2,1,10,15, 1,24, 0.00,60.00,Friday
40,57996196.7332391
772,6791184.0
1885,57996196.7332391
End of Data
 Number of Records Written=          72
