Program Version,EnergyPlus, Version 9.0.1-bb7ca4f0da, YMD=2021.11.02 02:06
1,5,Environment Title[],Latitude[deg],Longitude[deg],Time Zone[],Elevation[m]
2,8,Day of Simulation[],Month[],Day of Month[],DST Indicator[1=yes 0=no],Hour[],StartMinute[],EndMinute[],DayType
3,5,Cumulative Day of Simulation[],Month[],Day of Month[],DST Indicator[1=yes 0=no],DayType  ! When Daily Meters Requested
4,2,Cumulative Days of Simulation[],Month[]  ! When Monthly Meters Requested
5,1,Cumulative Days of Simulation[] ! When Run Period Meters Requested
6,1,Calendar Year of Simulation[] ! When Annual Meters Requested
40,1,Electricity:Facility [J] !Hourly
1885,1,ElectricityNet:Facility [J] !Hourly
772,1,Gas:Facility [J] !Hourly
End of Data Dictionary
1,RUNPERIOD 1,  32.17,-110.88,  -7.00, 809.00
2,1,10,15, 1, 1, 0.00,60.00,Friday
40,57609639.64985575
772,6791184.0
1885,57609639.64985575
2,1,10,15, 1, 2, 0.00,60.00,Friday
40,57609860.1137362
772,6791184.0
1885,57609860.1137362
2,1,10,15, 1, 3, 0.00,60.00,Friday
40,57609860.1137362
772,6791184.0
1885,57609860.1137362
2,1,10,15, 1, 4, 0.00,60.00,Friday
40,57609860.1137362
772,6791184.0
1885,57609860.1137362
2,1,10,15, 1, 5, 0.00,60.00,Friday
40,57609860.1137362
772,6791184.0
1885,57609860.1137362
2,1,10,15, 1, 6, 0.00,60.00,Friday
40,108401443.79422224
772,6791184.0
1885,108401443.79422222
2,1,10,15, 1, 7, 0.00,60.00,Friday
40,181934890.23760057
772,6791184.0
1885,181934890.23760057
2,1,10,15, 1, 8, 0.00,60.00,Friday
40,322924167.83309498
772,6791184.0
1885,322924167.8330949
2,1,10,15, 1, 9, 0.00,60.00,Friday
40,386308895.0955552
772,6791184.0
1885,386308895.0955551
2,1,10,15, 1,10, 0.00,60.00,Friday
40,468177877.69244709
772,6791184.0
1885,468177877.69244709
2,1,10,15, 1,11, 0.00,60.00,Friday
40,345757845.6687374
772,11220305.198382665
1885,345757845.6687374
2,1,10,15, 1,12, 0.00,60.00,Friday
40,334731495.2784344
772,20458850.48319327
1885,334731495.2784344
2,1,10,15, 1,13, 0.00,60.00,Friday
40,354581196.69674029
772,17368461.6403662
1885,354581196.69674018
2,1,10,15, 1,14, 0.00,60.00,Friday
40,374055013.0063361
772,13895753.672289569
1885,374055013.006336
2,1,10,15, 1,15, 0.00,60.00,Friday
40,534698110.4653094
772,11050176.036838185
1885,534698110.4653094
2,1,10,15, 1,16, 0.00,60.00,Friday
40,465226233.89764156
772,15574214.735943817
1885,465226233.89764156
2,1,10,15, 1,17, 0.00,60.00,Friday
40,295824440.20358017
772,10973340.848362849
1885,295824440.20358017
2,1,10,15, 1,18, 0.00,60.00,Friday
40,206777444.44531969
772,6791184.0
1885,206777444.44531966
2,1,10,15, 1,19, 0.00,60.00,Friday
40,173880754.64174954
772,6791184.0
1885,173880754.6417495
2,1,10,15, 1,20, 0.00,60.00,Friday
40,330123661.826664
772,6791184.0
1885,330123661.8266639
2,1,10,15, 1,21, 0.00,60.00,Friday
40,147707550.44708709
772,6791184.0
1885,147707550.44708706
2,1,10,15, 1,22, 0.00,60.00,Friday
40,77772390.65670999
772,6791184.0
1885,77772390.65670999
2,1,10,15, 1,23, 0.00,60.00,Friday
40,72442274.24247962
772,6791184.0
1885,72442274.24247962
2,1,10,15, 1,24, 0.00,60.00,Friday
40,57996196.7332391
772,6791184.0
1885,57996196.7332391
End of Data
 Number of Records Written=          72
