Program Version,EnergyPlus, Version 9.0.1-bb7ca4f0da, YMD=2021.10.30 02:18
1,5,Environment Title[],Latitude[deg],Longitude[deg],Time Zone[],Elevation[m]
2,8,Day of Simulation[],Month[],Day of Month[],DST Indicator[1=yes 0=no],Hour[],StartMinute[],EndMinute[],DayType
3,5,Cumulative Day of Simulation[],Month[],Day of Month[],DST Indicator[1=yes 0=no],DayType  ! When Daily Meters Requested
4,2,Cumulative Days of Simulation[],Month[]  ! When Monthly Meters Requested
5,1,Cumulative Days of Simulation[] ! When Run Period Meters Requested
6,1,Calendar Year of Simulation[] ! When Annual Meters Requested
40,1,Electricity:Facility [J] !Hourly
1885,1,ElectricityNet:Facility [J] !Hourly
772,1,Gas:Facility [J] !Hourly
End of Data Dictionary
1,RUNPERIOD 1,  32.17,-110.88,  -7.00, 809.00
2,1,10,15, 1, 1, 0.00,60.00,Friday
40,57609639.64985575
772,6791184.0
1885,57609639.64985575
2,1,10,15, 1, 2, 0.00,60.00,Friday
40,57609860.1137362
772,6791184.0
1885,57609860.1137362
2,1,10,15, 1, 3, 0.00,60.00,Friday
40,57609860.1137362
772,6791184.0
1885,57609860.1137362
2,1,10,15, 1, 4, 0.00,60.00,Friday
40,57609860.1137362
772,6791184.0
1885,57609860.1137362
2,1,10,15, 1, 5, 0.00,60.00,Friday
40,57609860.1137362
772,6791184.0
1885,57609860.1137362
2,1,10,15, 1, 6, 0.00,60.00,Friday
40,117485970.0435804
772,6791184.0
1885,117485970.0435804
2,1,10,15, 1, 7, 0.00,60.00,Friday
40,184194597.6701312
772,6791184.0
1885,184194597.67013125
2,1,10,15, 1, 8, 0.00,60.00,Friday
40,352566034.91289839
772,6791184.0
1885,352566034.9128983
2,1,10,15, 1, 9, 0.00,60.00,Friday
40,343229961.5929557
772,6791184.0
1885,343229961.59295567
2,1,10,15, 1,10, 0.00,60.00,Friday
40,327711347.9847269
772,6791184.0
1885,327711347.9847269
2,1,10,15, 1,11, 0.00,60.00,Friday
40,357725093.9228498
772,11220262.494056199
1885,357725093.9228498
2,1,10,15, 1,12, 0.00,60.00,Friday
40,398574532.6154011
772,20464537.503171848
1885,398574532.615401
2,1,10,15, 1,13, 0.00,60.00,Friday
40,416376278.3757965
772,16898995.178814308
1885,416376278.3757963
2,1,10,15, 1,14, 0.00,60.00,Friday
40,406555854.9494606
772,14331086.155354456
1885,406555854.9494605
2,1,10,15, 1,15, 0.00,60.00,Friday
40,467681061.817078
772,11052690.472388005
1885,467681061.8170779
2,1,10,15, 1,16, 0.00,60.00,Friday
40,437534762.50134888
772,15573826.75902288
1885,437534762.50134888
2,1,10,15, 1,17, 0.00,60.00,Friday
40,284986867.8447496
772,10970641.11157171
1885,284986867.8447496
2,1,10,15, 1,18, 0.00,60.00,Friday
40,187141202.59463234
772,6791184.0
1885,187141202.5946323
2,1,10,15, 1,19, 0.00,60.00,Friday
40,168513556.07149957
772,6791184.0
1885,168513556.07149957
2,1,10,15, 1,20, 0.00,60.00,Friday
40,153820661.13122566
772,6791184.0
1885,153820661.13122566
2,1,10,15, 1,21, 0.00,60.00,Friday
40,180588835.4748384
772,6791184.0
1885,180588835.4748384
2,1,10,15, 1,22, 0.00,60.00,Friday
40,77772390.65670999
772,6791184.0
1885,77772390.65670999
2,1,10,15, 1,23, 0.00,60.00,Friday
40,72442274.24247962
772,6791184.0
1885,72442274.24247962
2,1,10,15, 1,24, 0.00,60.00,Friday
40,57996196.7332391
772,6791184.0
1885,57996196.7332391
End of Data
 Number of Records Written=          72
