Program Version,EnergyPlus, Version 9.0.1-bb7ca4f0da, YMD=2022.02.17 03:25
1,5,Environment Title[],Latitude[deg],Longitude[deg],Time Zone[],Elevation[m]
2,8,Day of Simulation[],Month[],Day of Month[],DST Indicator[1=yes 0=no],Hour[],StartMinute[],EndMinute[],DayType
3,5,Cumulative Day of Simulation[],Month[],Day of Month[],DST Indicator[1=yes 0=no],DayType  ! When Daily Meters Requested
4,2,Cumulative Days of Simulation[],Month[]  ! When Monthly Meters Requested
5,1,Cumulative Days of Simulation[] ! When Run Period Meters Requested
6,1,Calendar Year of Simulation[] ! When Annual Meters Requested
40,1,Electricity:Facility [J] !Hourly
1885,1,ElectricityNet:Facility [J] !Hourly
772,1,Gas:Facility [J] !Hourly
End of Data Dictionary
1,RUNPERIOD 1,  32.17,-110.88,  -7.00, 809.00
2,1,10,15, 1, 1, 0.00,60.00,Friday
40,57609639.64985575
772,6791184.0
1885,57609639.64985575
2,1,10,15, 1, 2, 0.00,60.00,Friday
40,57609860.1137362
772,6791184.0
1885,57609860.1137362
2,1,10,15, 1, 3, 0.00,60.00,Friday
40,57609860.1137362
772,6791184.0
1885,57609860.1137362
2,1,10,15, 1, 4, 0.00,60.00,Friday
40,57609860.1137362
772,6791184.0
1885,57609860.1137362
2,1,10,15, 1, 5, 0.00,60.00,Friday
40,57609860.1137362
772,6791184.0
1885,57609860.1137362
2,1,10,15, 1, 6, 0.00,60.00,Friday
40,102490122.98896277
772,6791184.0
1885,102490122.98896277
2,1,10,15, 1, 7, 0.00,60.00,Friday
40,249745718.31739683
772,6791184.0
1885,249745718.31739686
2,1,10,15, 1, 8, 0.00,60.00,Friday
40,321817298.21008667
772,6791184.0
1885,321817298.2100867
2,1,10,15, 1, 9, 0.00,60.00,Friday
40,370143894.7297344
772,6791184.0
1885,370143894.7297344
2,1,10,15, 1,10, 0.00,60.00,Friday
40,315429816.03169456
772,6791184.0
1885,315429816.0316945
2,1,10,15, 1,11, 0.00,60.00,Friday
40,433606542.47422996
772,11221717.379191772
1885,433606542.4742299
2,1,10,15, 1,12, 0.00,60.00,Friday
40,464659959.4847223
772,20471323.01386516
1885,464659959.4847222
2,1,10,15, 1,13, 0.00,60.00,Friday
40,443739885.8726439
772,17905154.01338234
1885,443739885.8726439
2,1,10,15, 1,14, 0.00,60.00,Friday
40,332236066.95410659
772,13440632.325652738
1885,332236066.9541065
2,1,10,15, 1,15, 0.00,60.00,Friday
40,616081453.4536789
772,11052445.964145903
1885,616081453.4536787
2,1,10,15, 1,16, 0.00,60.00,Friday
40,373522523.9099183
772,15573118.828587985
1885,373522523.90991827
2,1,10,15, 1,17, 0.00,60.00,Friday
40,290964540.65138217
772,10964036.855793152
1885,290964540.6513821
2,1,10,15, 1,18, 0.00,60.00,Friday
40,315944076.4824706
772,6791184.0
1885,315944076.4824706
2,1,10,15, 1,19, 0.00,60.00,Friday
40,164871169.02134104
772,6791184.0
1885,164871169.02134104
2,1,10,15, 1,20, 0.00,60.00,Friday
40,152455626.209306
772,6791184.0
1885,152455626.209306
2,1,10,15, 1,21, 0.00,60.00,Friday
40,135787885.52221344
772,6791184.0
1885,135787885.52221347
2,1,10,15, 1,22, 0.00,60.00,Friday
40,77772390.65670999
772,6791184.0
1885,77772390.65670999
2,1,10,15, 1,23, 0.00,60.00,Friday
40,72442274.24247962
772,6791184.0
1885,72442274.24247962
2,1,10,15, 1,24, 0.00,60.00,Friday
40,57996196.7332391
772,6791184.0
1885,57996196.7332391
End of Data
 Number of Records Written=          72
