Program Version,EnergyPlus, Version 9.0.1-bb7ca4f0da, YMD=2022.02.17 03:25
1,5,Environment Title[],Latitude[deg],Longitude[deg],Time Zone[],Elevation[m]
2,8,Day of Simulation[],Month[],Day of Month[],DST Indicator[1=yes 0=no],Hour[],StartMinute[],EndMinute[],DayType
3,5,Cumulative Day of Simulation[],Month[],Day of Month[],DST Indicator[1=yes 0=no],DayType  ! When Daily Report Variables Requested
4,2,Cumulative Days of Simulation[],Month[]  ! When Monthly Report Variables Requested
5,1,Cumulative Days of Simulation[] ! When Run Period Report Variables Requested
6,1,Calendar Year of Simulation[] ! When Annual Report Variables Requested
9,1,CORE_BOTTOM,Zone People Occupant Count [] !Hourly
11,1,CORE_MID,Zone People Occupant Count [] !Hourly
13,1,CORE_TOP,Zone People Occupant Count [] !Hourly
15,1,PERIMETER_TOP_ZN_3,Zone People Occupant Count [] !Hourly
17,1,PERIMETER_TOP_ZN_2,Zone People Occupant Count [] !Hourly
19,1,PERIMETER_TOP_ZN_1,Zone People Occupant Count [] !Hourly
21,1,PERIMETER_TOP_ZN_4,Zone People Occupant Count [] !Hourly
23,1,PERIMETER_BOT_ZN_3,Zone People Occupant Count [] !Hourly
25,1,PERIMETER_BOT_ZN_2,Zone People Occupant Count [] !Hourly
27,1,PERIMETER_BOT_ZN_1,Zone People Occupant Count [] !Hourly
29,1,PERIMETER_BOT_ZN_4,Zone People Occupant Count [] !Hourly
31,1,PERIMETER_MID_ZN_3,Zone People Occupant Count [] !Hourly
33,1,PERIMETER_MID_ZN_2,Zone People Occupant Count [] !Hourly
35,1,PERIMETER_MID_ZN_1,Zone People Occupant Count [] !Hourly
37,1,PERIMETER_MID_ZN_4,Zone People Occupant Count [] !Hourly
1920,1,CORE_BOTTOM,Zone Thermal Comfort Fanger Model PPD [%] !Hourly
1921,1,CORE_MID,Zone Thermal Comfort Fanger Model PPD [%] !Hourly
1922,1,CORE_TOP,Zone Thermal Comfort Fanger Model PPD [%] !Hourly
1923,1,PERIMETER_TOP_ZN_3,Zone Thermal Comfort Fanger Model PPD [%] !Hourly
1924,1,PERIMETER_TOP_ZN_2,Zone Thermal Comfort Fanger Model PPD [%] !Hourly
1925,1,PERIMETER_TOP_ZN_1,Zone Thermal Comfort Fanger Model PPD [%] !Hourly
1926,1,PERIMETER_TOP_ZN_4,Zone Thermal Comfort Fanger Model PPD [%] !Hourly
1927,1,PERIMETER_BOT_ZN_3,Zone Thermal Comfort Fanger Model PPD [%] !Hourly
1928,1,PERIMETER_BOT_ZN_2,Zone Thermal Comfort Fanger Model PPD [%] !Hourly
1929,1,PERIMETER_BOT_ZN_1,Zone Thermal Comfort Fanger Model PPD [%] !Hourly
1930,1,PERIMETER_BOT_ZN_4,Zone Thermal Comfort Fanger Model PPD [%] !Hourly
1931,1,PERIMETER_MID_ZN_3,Zone Thermal Comfort Fanger Model PPD [%] !Hourly
1932,1,PERIMETER_MID_ZN_2,Zone Thermal Comfort Fanger Model PPD [%] !Hourly
1933,1,PERIMETER_MID_ZN_1,Zone Thermal Comfort Fanger Model PPD [%] !Hourly
1934,1,PERIMETER_MID_ZN_4,Zone Thermal Comfort Fanger Model PPD [%] !Hourly
End of Data Dictionary
1,RUNPERIOD 1,  32.17,-110.88,  -7.00, 809.00
2,1,10,15, 1, 1, 0.00,60.00,Friday
9,0.0
11,0.0
13,0.0
15,0.0
17,0.0
19,0.0
21,0.0
23,0.0
25,0.0
27,0.0
29,0.0
31,0.0
33,0.0
35,0.0
37,0.0
1920,13.939711296650508
1921,10.730155316011823
1922,8.099953424393578
1923,5.628811237805941
1924,5.911086979196111
1925,6.740347747415181
1926,6.4110944797128559
1927,7.9067719098058719
1928,9.86761491042042
1929,14.352940103652204
1930,11.084592291052948
1931,6.7378369741764179
1932,6.995120752124016
1933,8.474837665392768
1934,7.943873025938811
2,1,10,15, 1, 2, 0.00,60.00,Friday
9,0.0
11,0.0
13,0.0
15,0.0
17,0.0
19,0.0
21,0.0
23,0.0
25,0.0
27,0.0
29,0.0
31,0.0
33,0.0
35,0.0
37,0.0
1920,13.97724463876286
1921,10.809426369251656
1922,7.919188584716328
1923,5.5427051855335069
1924,5.778520030020187
1925,6.481922500336329
1926,6.174247918836923
1927,7.94198704595662
1928,9.827691949841466
1929,14.1604484692703
1930,10.967193890563435
1931,6.745728697928345
1932,6.972375571881365
1933,8.310943339010264
1934,7.785279607126053
2,1,10,15, 1, 3, 0.00,60.00,Friday
9,0.0
11,0.0
13,0.0
15,0.0
17,0.0
19,0.0
21,0.0
23,0.0
25,0.0
27,0.0
29,0.0
31,0.0
33,0.0
35,0.0
37,0.0
1920,14.041472803884889
1921,10.880981548897588
1922,7.771168519757263
1923,5.337838832070489
1924,5.498315445721971
1925,6.03820000525581
1926,5.78127945314709
1927,7.661515925585033
1928,9.391577709565065
1929,13.435959777159994
1930,10.409869731623815
1931,6.475904113073447
1932,6.640939699576961
1933,7.780662725010977
1934,7.299742063496278
2,1,10,15, 1, 4, 0.00,60.00,Friday
9,0.0
11,0.0
13,0.0
15,0.0
17,0.0
19,0.0
21,0.0
23,0.0
25,0.0
27,0.0
29,0.0
31,0.0
33,0.0
35,0.0
37,0.0
1920,14.075503990825182
1921,10.904414238879772
1922,7.572057307024679
1923,5.119714159233972
1924,5.19831965418756
1925,5.546370653886903
1926,5.365130154451255
1927,7.216829027996236
1928,8.737725019631041
1929,12.3947272093993
1930,9.639547034091687
1931,6.057472520735236
1932,6.151983405067765
1933,7.06058364953456
1934,6.65301869132787
2,1,10,15, 1, 5, 0.00,60.00,Friday
9,0.0
11,0.0
13,0.0
15,0.0
17,0.0
19,0.0
21,0.0
23,0.0
25,0.0
27,0.0
29,0.0
31,0.0
33,0.0
35,0.0
37,0.0
1920,14.08024831833975
1921,10.875020386625343
1922,7.306466093423673
1923,5.016001419724712
1924,5.041205616697965
1925,5.2326736055538449
1926,5.121335960788575
1927,6.913854402389636
1928,8.25592206824466
1929,11.61639722917287
1930,9.085096132995125
1931,5.767637751915854
1932,5.810872416015236
1933,6.53989964264827
1934,6.1964413743815289
2,1,10,15, 1, 6, 0.00,60.00,Friday
9,5.293866538198262
11,5.293866538198262
13,5.293866538198262
15,1.1159935258890757
17,0.7065162160575444
19,1.1159935258890757
21,0.7064698719305477
23,1.1159935258890757
25,0.7065162160575444
27,1.1159935258890757
29,0.7064698719305477
31,1.1159935258890757
33,0.7065162160575444
35,1.1159935258890757
37,0.7064698719305477
1920,10.744696388188908
1921,8.25113414057089
1922,5.861958103263845
1923,5.16921848740359
1924,5.129238530132423
1925,5.060713480179044
1926,5.077912176009349
1927,5.939925068638341
1928,6.839333063372426
1929,7.965314351443181
1930,7.425370514635389
1931,5.235459020965678
1932,5.250759824759467
1933,5.613523612497043
1934,5.433454857338892
2,1,10,15, 1, 7, 0.00,60.00,Friday
9,10.587733076396525
11,10.587733076396525
13,10.587733076396525
15,2.2319870517781514
17,1.4130324321150889
19,2.2319870517781514
21,1.4129397438610954
23,2.2319870517781514
25,1.4130324321150889
27,2.2319870517781514
29,1.4129397438610954
31,2.2319870517781514
33,1.4130324321150889
35,2.2319870517781514
37,1.4129397438610954
1920,5.736756981232287
1921,5.3371122382919939
1922,5.5030756890304579
1923,6.250362764938113
1924,5.832257808361514
1925,6.014174473079248
1926,6.115394220972142
1927,5.383335952956789
1928,5.269770120728775
1929,5.390576753461988
1930,5.439521112720956
1931,5.663541115282922
1932,5.238603723743111
1933,5.545236447256639
1934,5.636193253344804
2,1,10,15, 1, 8, 0.00,60.00,Friday
9,50.29173211288349
11,50.29173211288349
13,50.29173211288349
15,10.601938495946215
17,6.7119040525466719
19,10.601938495946215
21,6.711463783340204
23,10.601938495946215
25,6.7119040525466719
27,10.601938495946215
29,6.711463783340204
31,10.601938495946215
33,6.7119040525466719
35,10.601938495946215
37,6.711463783340204
1920,10.269190139348402
1921,6.175683969481014
1922,5.346834204251114
1923,5.365507789366849
1924,8.636271120075888
1925,5.33776590160318
1926,5.312930565142207
1927,5.585313697465104
1928,11.155931368695745
1929,6.554197871177469
1930,6.167579118832324
1931,5.296521640815044
1932,7.292999221324547
1933,5.700018995611823
1934,5.334234697627013
2,1,10,15, 1, 9, 0.00,60.00,Friday
9,50.29173211288349
11,50.29173211288349
13,50.29173211288349
15,10.601938495946215
17,6.7119040525466719
19,10.601938495946215
21,6.711463783340204
23,10.601938495946215
25,6.7119040525466719
27,10.601938495946215
29,6.711463783340204
31,10.601938495946215
33,6.7119040525466719
35,10.601938495946215
37,6.711463783340204
1920,7.900712366500763
1921,6.226571272284088
1922,5.559176624613126
1923,5.197077853160832
1924,9.323060489748939
1925,5.9087986559239529
1926,5.2515748187673199
1927,5.8674390153433439
1928,10.076769420526022
1929,7.344436598385951
1930,6.324010958838483
1931,5.532769280151409
1932,8.841928191432764
1933,6.5188731640932648
1934,5.599346380818699
2,1,10,15, 1,10, 0.00,60.00,Friday
9,51.652426635444069
11,51.652426635444069
13,51.652426635444069
15,10.888784842927822
17,6.893501517906446
19,10.888784842927822
21,6.89304933676391
23,10.888784842927822
25,6.893501517906446
27,10.888784842927822
29,6.89304933676391
31,10.888784842927822
33,0.0
35,10.888784842927822
37,6.89304933676391
1920,10.147845189591197
1921,7.628966430443829
1922,6.69645841939861
1923,6.167528077867954
1924,13.227509819023267
1925,11.05358852331343
1926,6.3740499328852169
1927,7.401516494730923
1928,13.249003626784126
1929,12.158568352286025
1930,8.605780442042495
1931,6.843455298373684
1932,10.253942517060935
1933,11.768322023551704
1934,7.093601126853422
2,1,10,15, 1,11, 0.00,60.00,Friday
9,50.29173211288349
11,50.29173211288349
13,50.29173211288349
15,10.601938495946215
17,6.7119040525466719
19,10.601938495946215
21,6.711463783340204
23,10.601938495946215
25,6.7119040525466719
27,10.601938495946215
29,6.711463783340204
31,10.601938495946215
33,6.7119040525466719
35,10.601938495946215
37,6.711463783340204
1920,8.022057070785906
1921,7.008272723323475
1922,6.645203414439979
1923,6.421900258438519
1924,9.32118071906204
1925,10.181851066384616
1926,6.5943522734153439
1927,6.990571494273429
1928,9.61107236635097
1929,11.989116710938769
1930,7.7035936489761
1931,6.6963350841712219
1932,8.536577258038263
1933,11.213016475098252
1934,6.8694607696864768
2,1,10,15, 1,12, 0.00,60.00,Friday
9,27.185487702865307
11,27.185487702865307
13,27.185487702865307
15,5.730939391014644
17,3.6281586936349727
19,5.730939391014644
21,3.6279207035599527
23,5.730939391014644
25,3.6281586936349727
27,5.730939391014644
29,3.6279207035599527
31,5.730939391014644
33,0.0
35,5.730939391014644
37,3.6279207035599527
1920,6.489142468374989
1921,5.8218002423498949
1922,5.8130031354283819
1923,5.824286758689837
1924,6.58149846531698
1925,9.750413791202126
1926,5.927902531000304
1927,5.962120289435302
1928,6.959419197215593
1929,15.935541170294373
1930,6.289121528337179
1931,5.822089861474166
1932,8.602769507297479
1933,11.507534034684796
1934,5.9254734388023
2,1,10,15, 1,13, 0.00,60.00,Friday
9,50.29173211288349
11,50.29173211288349
13,50.29173211288349
15,10.601938495946215
17,6.7119040525466719
19,10.601938495946215
21,6.711463783340204
23,10.601938495946215
25,6.7119040525466719
27,10.601938495946215
29,6.711463783340204
31,10.601938495946215
33,6.7119040525466719
35,10.601938495946215
37,6.711463783340204
1920,6.988710686097922
1921,6.284546989805858
1922,6.340937040642274
1923,6.407256369983192
1924,7.0735322996528329
1925,11.54411577088724
1926,6.572382329365456
1927,6.476463728827372
1928,7.448362270671287
1929,16.627300089993044
1930,6.858787842610276
1931,6.3511096445489489
1932,7.665938018847544
1933,13.68332979967383
1934,6.515941931394558
2,1,10,15, 1,14, 0.00,60.00,Friday
9,51.652426635444069
11,51.652426635444069
13,51.652426635444069
15,10.888784842927822
17,6.893501517906446
19,10.888784842927822
21,6.89304933676391
23,10.888784842927822
25,6.893501517906446
27,10.888784842927822
29,6.89304933676391
31,10.888784842927822
33,0.0
35,10.888784842927822
37,6.89304933676391
1920,12.975932328142184
1921,8.532251773906078
1922,8.896769545508633
1923,9.617752752863425
1924,12.221194876771401
1925,22.450053673560764
1926,13.403472756536117
1927,9.46137250178664
1928,13.138932079197437
1929,22.783212818110486
1930,13.162896545821078
1931,9.221817835899176
1932,8.4657093772406
1933,22.880826281428015
1934,12.968615456877942
2,1,10,15, 1,15, 0.00,60.00,Friday
9,50.29173211288349
11,50.29173211288349
13,50.29173211288349
15,10.601938495946215
17,6.7119040525466719
19,10.601938495946215
21,6.711463783340204
23,10.601938495946215
25,6.7119040525466719
27,10.601938495946215
29,6.711463783340204
31,10.601938495946215
33,6.7119040525466719
35,10.601938495946215
37,6.711463783340204
1920,8.04868640374025
1921,6.585146392018994
1922,6.792943241494915
1923,6.669202544638925
1924,7.412699373656726
1925,16.817430628556158
1926,9.500513012783364
1927,6.940854948226817
1928,8.019060153217927
1929,20.043235127948657
1930,9.935527046332993
1931,6.59935976155009
1932,7.6730003846063659
1933,18.09349503821638
1934,9.625608862979379
2,1,10,15, 1,16, 0.00,60.00,Friday
9,50.29173211288349
11,50.29173211288349
13,50.29173211288349
15,10.601938495946215
17,6.7119040525466719
19,10.601938495946215
21,6.711463783340204
23,10.601938495946215
25,6.7119040525466719
27,10.601938495946215
29,6.711463783340204
31,10.601938495946215
33,6.7119040525466719
35,10.601938495946215
37,6.711463783340204
1920,10.163459863481025
1921,7.847517578107237
1922,8.023116841486314
1923,8.373602848847165
1924,9.373095012985765
1925,14.858649812301027
1926,15.0829410150221
1927,8.754404511047872
1928,10.242112228744182
1929,16.33609700165944
1930,14.52324553244216
1931,8.202379357143995
1932,7.376278678724302
1933,15.199634682749866
1934,15.096910719542228
2,1,10,15, 1,17, 0.00,60.00,Friday
9,15.881599614594786
11,15.881599614594786
13,15.881599614594786
15,3.347980577667226
17,2.1195486481726335
19,3.347980577667226
21,2.119409615791643
23,3.347980577667226
25,2.1195486481726335
27,3.347980577667226
29,2.119409615791643
31,3.347980577667226
33,2.1195486481726335
35,3.347980577667226
37,2.119409615791643
1920,13.355923351590655
1921,8.940315430163949
1922,9.521063457840816
1923,10.49835326510547
1924,12.050947328755229
1925,15.545825734896625
1926,19.45774947649377
1927,10.48808054218005
1928,13.300084102972626
1929,16.32939782699844
1930,19.153278638634278
1931,9.9568682815163
1932,6.953604985738248
1933,15.326838592679266
1934,19.155693787462515
2,1,10,15, 1,18, 0.00,60.00,Friday
9,5.293866538198262
11,5.293866538198262
13,5.293866538198262
15,1.1159935258890757
17,0.7065162160575444
19,1.1159935258890757
21,0.7064698719305477
23,1.1159935258890757
25,0.7065162160575444
27,1.1159935258890757
29,0.7064698719305477
31,1.1159935258890757
33,0.7065162160575444
35,1.1159935258890757
37,0.7064698719305477
1920,7.267865136211401
1921,5.964056107569287
1922,6.125679912804794
1923,6.332239342616655
1924,6.757649189941188
1925,7.792597998997546
1926,9.155054967196547
1927,6.493874569865824
1928,7.378791610065434
1929,9.946168240512721
1930,9.733115256639359
1931,6.176563489475505
1932,6.547532209338769
1933,7.790501542958634
1934,9.057958845735963
2,1,10,15, 1,19, 0.00,60.00,Friday
9,5.293866538198262
11,5.293866538198262
13,5.293866538198262
15,1.1159935258890757
17,0.7065162160575444
19,1.1159935258890757
21,0.7064698719305477
23,1.1159935258890757
25,0.7065162160575444
27,1.1159935258890757
29,0.7064698719305477
31,1.1159935258890757
33,0.7065162160575444
35,1.1159935258890757
37,0.7064698719305477
1920,7.6478591536641409
1921,5.962108154786679
1922,5.859802080160468
1923,5.947216829380025
1924,6.411921529540888
1925,7.7628685153798149
1926,8.181294481884187
1927,6.473432768695742
1928,7.805076445527405
1929,11.720805633895133
1930,9.83965399520825
1931,6.001589641348751
1932,6.2461434481436559
1933,7.975086107474065
1934,8.332966823050576
2,1,10,15, 1,20, 0.00,60.00,Friday
9,5.293866538198262
11,5.293866538198262
13,5.293866538198262
15,1.1159935258890757
17,0.7065162160575444
19,1.1159935258890757
21,0.7064698719305477
23,1.1159935258890757
25,0.7065162160575444
27,1.1159935258890757
29,0.7064698719305477
31,1.1159935258890757
33,0.7065162160575444
35,1.1159935258890757
37,0.7064698719305477
1920,8.347479986407619
1921,6.294522322632479
1922,5.971692367836565
1923,5.9265945353366649
1924,6.511353060240853
1925,7.970079960496321
1926,7.997059201452288
1927,6.843523028205856
1928,8.269506111838988
1929,10.21811374120182
1930,9.145451125914193
1931,6.1561352263867639
1932,6.0379058300973489
1933,8.236212334600938
1934,8.232532041725153
2,1,10,15, 1,21, 0.00,60.00,Friday
9,5.293866538198262
11,5.293866538198262
13,5.293866538198262
15,1.1159935258890757
17,0.7065162160575444
19,1.1159935258890757
21,0.7064698719305477
23,1.1159935258890757
25,0.7065162160575444
27,1.1159935258890757
29,0.7064698719305477
31,1.1159935258890757
33,0.7065162160575444
35,1.1159935258890757
37,0.7064698719305477
1920,8.142626695962628
1921,6.14836368001144
1922,5.701328327054351
1923,5.511515866107541
1924,5.933671767257347
1925,7.081944928002102
1926,6.960114266978803
1927,6.483499083428458
1928,7.99061475608422
1929,10.783404233688027
1930,9.065196463217414
1931,5.814091852364584
1932,5.848736493165414
1933,7.654874463542835
1934,7.4807293221990369
2,1,10,15, 1,22, 0.00,60.00,Friday
9,2.646933269099131
11,2.646933269099131
13,2.646933269099131
15,0.5579967629445378
17,0.3532581080287722
19,0.5579967629445378
21,0.35323493596527386
23,0.5579967629445378
25,0.3532581080287722
27,0.5579967629445378
29,0.35323493596527386
31,0.5579967629445378
33,0.3532581080287722
35,0.5579967629445378
37,0.35323493596527386
1920,11.370370230462149
1921,8.370624916707277
1922,7.22295889853535
1923,5.9882808133688
1924,6.490234445095072
1925,7.821146786891298
1926,7.495134667366628
1927,7.651857566765604
1928,9.702315550783306
1929,14.31945927331307
1930,11.193759754187957
1931,6.652740426952893
1932,6.972496571000915
1933,8.955347453179869
1934,8.499323696267579
2,1,10,15, 1,23, 0.00,60.00,Friday
9,2.646933269099131
11,2.646933269099131
13,2.646933269099131
15,0.5579967629445378
17,0.3532581080287722
19,0.5579967629445378
21,0.35323493596527386
23,0.5579967629445378
25,0.3532581080287722
27,0.5579967629445378
29,0.35323493596527386
31,0.5579967629445378
33,0.3532581080287722
35,0.5579967629445378
37,0.35323493596527386
1920,13.971148013693812
1921,10.583361190664624
1922,8.583590499924597
1923,6.191957659633374
1924,6.683447326315218
1925,7.995387003068802
1926,7.581208524930251
1927,8.367684775373022
1928,10.602427637747887
1929,15.582735693468555
1930,12.093319396485656
1931,7.209927056192202
1932,7.5791841914372999
1933,9.598145295146678
1934,9.023918854059217
2,1,10,15, 1,24, 0.00,60.00,Friday
9,0.0
11,0.0
13,0.0
15,0.0
17,0.0
19,0.0
21,0.0
23,0.0
25,0.0
27,0.0
29,0.0
31,0.0
33,0.0
35,0.0
37,0.0
1920,14.064662970838852
1921,10.771593125371155
1922,8.414336158001975
1923,5.896725167505302
1924,6.277645883070325
1925,7.328044100105639
1926,6.954463809582563
1927,8.147266763947208
1928,10.238961002147667
1929,14.989775669884063
1930,11.600426086508739
1931,6.987672365672151
1932,7.306140538203098
1933,9.043017948073248
1934,8.482145292738368
End of Data
 Number of Records Written=         720
